 Entering Gaussian System, Link 0=g09
 Input=ts_d.com
 Output=ts_d.log
 Initial command:
 /home/student/g09/l1.exe /home/student/Aniruddha_1811022/Q-2/Gau-17621.inp -scrdir=/home/student/Aniruddha_1811022/Q-2/
 Entering Link 1 = /home/student/g09/l1.exe PID=     17624.
  
 Copyright (c) 1988,1990,1992,1993,1995,1998,2003,2009,2011,
            Gaussian, Inc.  All Rights Reserved.
  
 This is part of the Gaussian(R) 09 program.  It is based on
 the Gaussian(R) 03 system (copyright 2003, Gaussian, Inc.),
 the Gaussian(R) 98 system (copyright 1998, Gaussian, Inc.),
 the Gaussian(R) 94 system (copyright 1995, Gaussian, Inc.),
 the Gaussian 92(TM) system (copyright 1992, Gaussian, Inc.),
 the Gaussian 90(TM) system (copyright 1990, Gaussian, Inc.),
 the Gaussian 88(TM) system (copyright 1988, Gaussian, Inc.),
 the Gaussian 86(TM) system (copyright 1986, Carnegie Mellon
 University), and the Gaussian 82(TM) system (copyright 1983,
 Carnegie Mellon University). Gaussian is a federally registered
 trademark of Gaussian, Inc.
  
 This software contains proprietary and confidential information,
 including trade secrets, belonging to Gaussian, Inc.
  
 This software is provided under written license and may be
 used, copied, transmitted, or stored only in accord with that
 written license.
  
 The following legend is applicable only to US Government
 contracts under FAR:
  
                    RESTRICTED RIGHTS LEGEND
  
 Use, reproduction and disclosure by the US Government is
 subject to restrictions as set forth in subparagraphs (a)
 and (c) of the Commercial Computer Software - Restricted
 Rights clause in FAR 52.227-19.
  
 Gaussian, Inc.
 340 Quinnipiac St., Bldg. 40, Wallingford CT 06492
  
  
 ---------------------------------------------------------------
 Warning -- This program may not be used in any manner that
 competes with the business of Gaussian, Inc. or will provide
 assistance to any competitor of Gaussian, Inc.  The licensee
 of this program is prohibited from giving any competitor of
 Gaussian, Inc. access to this program.  By using this program,
 the user acknowledges that Gaussian, Inc. is engaged in the
 business of creating and licensing software in the field of
 computational chemistry and represents and warrants to the
 licensee that it is not a competitor of Gaussian, Inc. and that
 it will not use this program in any manner prohibited above.
 ---------------------------------------------------------------
  

 Cite this work as:
 Gaussian 09, Revision C.01,
 M. J. Frisch, G. W. Trucks, H. B. Schlegel, G. E. Scuseria, 
 M. A. Robb, J. R. Cheeseman, G. Scalmani, V. Barone, B. Mennucci, 
 G. A. Petersson, H. Nakatsuji, M. Caricato, X. Li, H. P. Hratchian, 
 A. F. Izmaylov, J. Bloino, G. Zheng, J. L. Sonnenberg, M. Hada, 
 M. Ehara, K. Toyota, R. Fukuda, J. Hasegawa, M. Ishida, T. Nakajima, 
 Y. Honda, O. Kitao, H. Nakai, T. Vreven, J. A. Montgomery, Jr., 
 J. E. Peralta, F. Ogliaro, M. Bearpark, J. J. Heyd, E. Brothers, 
 K. N. Kudin, V. N. Staroverov, T. Keith, R. Kobayashi, J. Normand, 
 K. Raghavachari, A. Rendell, J. C. Burant, S. S. Iyengar, J. Tomasi, 
 M. Cossi, N. Rega, J. M. Millam, M. Klene, J. E. Knox, J. B. Cross, 
 V. Bakken, C. Adamo, J. Jaramillo, R. Gomperts, R. E. Stratmann, 
 O. Yazyev, A. J. Austin, R. Cammi, C. Pomelli, J. W. Ochterski, 
 R. L. Martin, K. Morokuma, V. G. Zakrzewski, G. A. Voth, 
 P. Salvador, J. J. Dannenberg, S. Dapprich, A. D. Daniels, 
 O. Farkas, J. B. Foresman, J. V. Ortiz, J. Cioslowski, 
 and D. J. Fox, Gaussian, Inc., Wallingford CT, 2010.
 
 ******************************************
 Gaussian 09:  EM64L-G09RevC.01 23-Sep-2011
                22-Feb-2021 
 ******************************************
 %chk=ts_h.chk
 -----------------------------------------------------
 # b3lyp/6-31g* geom=connectivity opt=(ts,calcfc) freq
 -----------------------------------------------------
 1/5=1,10=4,14=-1,18=20,26=3,38=1,57=2/1,3;
 2/9=110,12=2,17=6,18=5,40=1/2;
 3/5=1,6=6,7=1,11=2,16=1,25=1,30=1,71=2,74=-5/1,2,3;
 4//1;
 5/5=2,38=5/2;
 8/6=4,10=90,11=11/1;
 11/6=1,8=1,9=11,15=111,16=1/1,2,10;
 10/6=1,7=6,13=1/2;
 6/7=2,8=2,9=2,10=2,28=1/1;
 7/10=1,18=20,25=1/1,2,3,16;
 1/5=1,10=4,14=-1,18=20/3(2);
 2/9=110/2;
 99//99;
 2/9=110/2;
 3/5=1,6=6,7=1,11=2,16=1,25=1,30=1,71=1,74=-5/1,2,3;
 4/5=5,16=3/1;
 5/5=2,38=5/2;
 7//1,2,3,16;
 1/5=1,14=-1,18=20/3(-5);
 2/9=110/2;
 6/7=2,8=2,9=2,10=2,19=2,28=1/1;
 99/9=1/99;
 -------------------
 Title Card Required
 -------------------
 Charge =  0 Multiplicity = 2
 Symbolic Z-Matrix:
 C                    -1.88399   1.17673  -0.31567 
 H                    -1.72551   1.67693  -1.24818 
 H(iso=2)             -3.20876   1.19864  -0.00888 
 Cl                   -0.975     1.9942    0.95046 
 Cl                   -1.33926  -0.49184  -0.44495 
 Cl                   -4.6699    1.2228    0.32948 
 

 GradGradGradGradGradGradGradGradGradGradGradGradGradGradGradGradGradGrad
 Berny optimization.
 Initialization pass.
                           ----------------------------
                           !    Initial Parameters    !
                           ! (Angstroms and Degrees)  !
 --------------------------                            --------------------------
 ! Name  Definition              Value          Derivative Info.                !
 --------------------------------------------------------------------------------
 ! R1    R(1,2)                  1.07           calculate D2E/DX2 analytically  !
 ! R2    R(1,3)                  1.36           calculate D2E/DX2 analytically  !
 ! R3    R(1,4)                  1.76           calculate D2E/DX2 analytically  !
 ! R4    R(1,5)                  1.76           calculate D2E/DX2 analytically  !
 ! R5    R(3,6)                  1.5            calculate D2E/DX2 analytically  !
 ! A1    A(2,1,3)              109.4712         calculate D2E/DX2 analytically  !
 ! A2    A(2,1,4)              109.4713         calculate D2E/DX2 analytically  !
 ! A3    A(2,1,5)              109.4712         calculate D2E/DX2 analytically  !
 ! A4    A(3,1,4)              109.4712         calculate D2E/DX2 analytically  !
 ! A5    A(3,1,5)              109.4712         calculate D2E/DX2 analytically  !
 ! A6    A(4,1,5)              109.4712         calculate D2E/DX2 analytically  !
 ! A7    L(1,3,6,4,-1)         180.0            calculate D2E/DX2 analytically  !
 ! A8    L(1,3,6,4,-2)         180.0            calculate D2E/DX2 analytically  !
 ! D1    D(2,1,4,3)            120.0            calculate D2E/DX2 analytically  !
 ! D2    D(2,1,5,3)           -120.0            calculate D2E/DX2 analytically  !
 ! D3    D(2,1,5,4)            120.0            calculate D2E/DX2 analytically  !
 ! D4    D(3,1,5,4)           -120.0            calculate D2E/DX2 analytically  !
 --------------------------------------------------------------------------------
 Trust Radius=3.00D-01 FncErr=1.00D-07 GrdErr=1.00D-06
 Number of steps in this run=     27 maximum allowed number of steps=    100.
 Search for a saddle point of order  1.
 GradGradGradGradGradGradGradGradGradGradGradGradGradGradGradGradGradGrad

                          Input orientation:                          
 ---------------------------------------------------------------------
 Center     Atomic      Atomic             Coordinates (Angstroms)
 Number     Number       Type             X           Y           Z
 ---------------------------------------------------------------------
      1          6           0       -1.883992    1.176732   -0.315666
      2          1           0       -1.725514    1.676932   -1.248181
      3          1           0       -3.208758    1.198641   -0.008884
      4         17           0       -0.975000    1.994196    0.950464
      5         17           0       -1.339256   -0.491845   -0.444951
      6         17           0       -4.669897    1.222805    0.329478
 ---------------------------------------------------------------------
                    Distance matrix (angstroms):
                    1          2          3          4          5
     1  C    0.000000
     2  H    1.070000   0.000000
     3  H    1.360000   1.991139   0.000000
     4  Cl   1.760000   2.344775   2.557916   0.000000
     5  Cl   1.760000   2.344774   2.557916   2.874068   0.000000
     6  Cl   2.860000   3.371147   1.500000   3.825302   3.825302
                    6
     6  Cl   0.000000
 Stoichiometry    CH2Cl3(2)
 Framework group  CS[SG(CH2Cl),X(Cl2)]
 Deg. of freedom     8
 Full point group                 CS      NOp   2
 Largest Abelian subgroup         CS      NOp   2
 Largest concise Abelian subgroup CS      NOp   2
                         Standard orientation:                         
 ---------------------------------------------------------------------
 Center     Atomic      Atomic             Coordinates (Angstroms)
 Number     Number       Type             X           Y           Z
 ---------------------------------------------------------------------
      1          6           0        0.565932   -0.381133    0.000000
      2          1           0        1.630193   -0.491801    0.000000
      3          1           0        0.247648    0.941099    0.000000
      4         17           0       -0.103401   -1.145677    1.437034
      5         17           0       -0.103401   -1.145677   -1.437034
      6         17           0       -0.103401    2.399442    0.000000
 ---------------------------------------------------------------------
 Rotational constants (GHZ):      3.3221421      1.6589965      1.1450573
 Standard basis: 6-31G(d) (6D, 7F)
 There are    48 symmetry adapted basis functions of A'  symmetry.
 There are    28 symmetry adapted basis functions of A"  symmetry.
 Integral buffers will be    131072 words long.
 Raffenetti 2 integral format.
 Two-electron integral symmetry is turned on.
    76 basis functions,   192 primitive gaussians,    76 cartesian basis functions
    30 alpha electrons       29 beta electrons
       nuclear repulsion energy       242.3192180400 Hartrees.
 NAtoms=    6 NActive=    6 NUniq=    5 SFac= 1.44D+00 NAtFMM=   60 NAOKFM=F Big=F
 One-electron integrals computed using PRISM.
 NBasis=    76 RedAO= T  NBF=    48    28
 NBsUse=    76 1.00D-06 NBFU=    48    28
 Harris functional with IExCor=  402 diagonalized for initial guess.
 ExpMin= 1.43D-01 ExpMax= 2.52D+04 ExpMxC= 3.78D+03 IAcc=1 IRadAn=         1 AccDes= 0.00D+00
 HarFok:  IExCor=  402 AccDes= 0.00D+00 IRadAn=         1 IDoV= 1
 ScaDFX=  1.000000  1.000000  1.000000  1.000000
 FoFCou: FMM=F IPFlag=           0 FMFlag=      100000 FMFlg1=           0
         NFxFlg=           0 DoJE=T BraDBF=F KetDBF=T FulRan=T
         Omega=  0.000000  0.000000  1.000000  0.000000  0.000000 ICntrl=     500 IOpCl=  0
         NMat0=    1 NMatS0=    1 NMatT0=    0 NMatD0=    1 NMtDS0=    0 NMtDT0=    0
         I1Cent=           4 NGrid=           0.
 Petite list used in FoFCou.
 Initial guess orbital symmetries:
 Alpha Orbitals:
       Occupied  (A') (A") (A') (A') (A") (A') (A') (A') (A") (A')
                 (A") (A") (A') (A') (A') (A") (A') (A") (A') (A')
                 (A') (A') (A") (A') (A") (A') (A') (A") (A") (A')
       Virtual   (A') (A") (A') (A') (A') (A") (A') (A') (A") (A')
                 (A') (A') (A") (A') (A") (A") (A') (A') (A") (A')
                 (A") (A') (A") (A') (A") (A') (A") (A') (A") (A')
                 (A") (A') (A') (A") (A') (A') (A') (A") (A') (A')
                 (A") (A') (A') (A') (A") (A')
 Beta  Orbitals:
       Occupied  (A') (A") (A') (A') (A") (A') (A') (A') (A") (A')
                 (A") (A") (A') (A') (A') (A") (A') (A") (A') (A')
                 (A') (A') (A") (A') (A") (A') (A') (A") (A")
       Virtual   (A') (A') (A") (A') (A') (A') (A") (A') (A') (A")
                 (A') (A') (A') (A") (A') (A") (A") (A') (A') (A")
                 (A') (A") (A') (A") (A') (A") (A') (A") (A') (A")
                 (A') (A") (A') (A') (A") (A') (A') (A') (A") (A')
                 (A') (A") (A') (A') (A') (A") (A')
 The electronic state of the initial guess is 2-A'.
 Initial guess <Sx>= 0.0000 <Sy>= 0.0000 <Sz>= 0.5000 <S**2>= 0.7500 S= 0.5000
 Requested convergence on RMS density matrix=1.00D-08 within 128 cycles.
 Requested convergence on MAX density matrix=1.00D-06.
 Requested convergence on             energy=1.00D-06.
 No special actions if energy rises.
 Keep R1 and R2 ints in memory in canonical form, NReq=9546684.
 Integral accuracy reduced to 1.0D-05 until final iterations.
 Initial convergence to 1.0D-05 achieved.  Increase integral accuracy.
 SCF Done:  E(UB3LYP) =  -1419.82318022     A.U. after   17 cycles
             Convg  =    0.9320D-08             -V/T =  2.0032
 <Sx>= 0.0000 <Sy>= 0.0000 <Sz>= 0.5000 <S**2>= 0.7553 S= 0.5026
 <L.S>= 0.000000000000E+00
 Annihilation of the first spin contaminant:
 S**2 before annihilation     0.7553,   after     0.7500
 Range of M.O.s used for correlation:     1    76
 NBasis=    76 NAE=    30 NBE=    29 NFC=     0 NFV=     0
 NROrb=     76 NOA=    30 NOB=    29 NVA=    46 NVB=    47
 Symmetrizing basis deriv contribution to polar:
 IMax=3 JMax=2 DiffMx= 0.00D+00
 G2DrvN: will do     7 centers at a time, making    1 passes doing MaxLOS=2.
 Calling FoFCou, ICntrl=  3107 FMM=F I1Cent=   0 AccDes= 0.00D+00.
 FoFDir/FoFCou used for L=0 through L=2.
 End of G2Drv Frequency-dependent properties file   721 does not exist.
 End of G2Drv Frequency-dependent properties file   722 does not exist.
          IDoAtm=111111
          Differentiating once with respect to nuclear coordinates.
          Keep R1 and R2 ints in memory in canonical form, NReq=9386587.
          There are    18 degrees of freedom in the 1st order CPHF.  IDoFFX=4.
     15 vectors produced by pass  0 Test12= 1.52D-10 5.56D-07 XBig12= 2.93D-01 2.97D-01.
 AX will form    15 AO Fock derivatives at one time.
     15 vectors produced by pass  1 Test12= 1.52D-10 5.56D-07 XBig12= 3.14D-02 8.30D-02.
     15 vectors produced by pass  2 Test12= 1.52D-10 5.56D-07 XBig12= 2.99D-03 1.28D-02.
     15 vectors produced by pass  3 Test12= 1.52D-10 5.56D-07 XBig12= 6.47D-05 2.12D-03.
     15 vectors produced by pass  4 Test12= 1.52D-10 5.56D-07 XBig12= 7.59D-07 2.93D-04.
     13 vectors produced by pass  5 Test12= 1.52D-10 5.56D-07 XBig12= 5.94D-09 1.99D-05.
      3 vectors produced by pass  6 Test12= 1.52D-10 5.56D-07 XBig12= 3.52D-11 1.48D-06.
 Inverted reduced A of dimension    91 with in-core refinement.
 End of Minotr Frequency-dependent properties file   721 does not exist.
 End of Minotr Frequency-dependent properties file   722 does not exist.

 **********************************************************************

            Population analysis using the SCF density.

 **********************************************************************

 Orbital symmetries:
 Alpha Orbitals:
       Occupied  (A") (A') (A') (A') (A") (A') (A') (A') (A") (A")
                 (A') (A') (A") (A') (A') (A") (A') (A") (A') (A')
                 (A') (A') (A") (A') (A") (A') (A") (A') (A") (A')
       Virtual   (A') (A") (A') (A') (A') (A") (A') (A") (A') (A')
                 (A') (A') (A") (A') (A") (A") (A') (A') (A") (A")
                 (A') (A') (A") (A") (A') (A') (A") (A') (A") (A')
                 (A") (A') (A') (A") (A') (A') (A') (A") (A') (A')
                 (A") (A') (A') (A') (A") (A')
 Beta  Orbitals:
       Occupied  (A") (A') (A') (A') (A") (A') (A') (A') (A") (A")
                 (A') (A") (A') (A') (A') (A") (A') (A") (A') (A')
                 (A') (A') (A") (A') (A') (A") (A") (A') (A")
       Virtual   (A') (A') (A") (A') (A') (A') (A") (A') (A") (A')
                 (A') (A') (A') (A") (A") (A') (A") (A') (A') (A")
                 (A") (A') (A') (A") (A") (A') (A') (A") (A") (A')
                 (A') (A") (A') (A") (A') (A') (A') (A') (A") (A')
                 (A') (A") (A') (A') (A') (A") (A')
 The electronic state is 2-A'.
 Alpha  occ. eigenvalues -- -101.59538-101.59538-101.53988 -10.35589  -9.51191
 Alpha  occ. eigenvalues --   -9.51190  -9.45630  -7.27604  -7.27602  -7.26706
 Alpha  occ. eigenvalues --   -7.26706  -7.26513  -7.26513  -7.22408  -7.20970
 Alpha  occ. eigenvalues --   -7.20968  -0.94978  -0.86571  -0.82222  -0.69340
 Alpha  occ. eigenvalues --   -0.53576  -0.50864  -0.48512  -0.39496  -0.36405
 Alpha  occ. eigenvalues --   -0.36052  -0.34035  -0.31730  -0.31637  -0.29278
 Alpha virt. eigenvalues --   -0.03168   0.00200   0.08503   0.12561   0.30260
 Alpha virt. eigenvalues --    0.34675   0.35509   0.37296   0.38728   0.40897
 Alpha virt. eigenvalues --    0.41183   0.42377   0.43014   0.47174   0.47401
 Alpha virt. eigenvalues --    0.50719   0.51456   0.56350   0.59488   0.75138
 Alpha virt. eigenvalues --    0.77951   0.79784   0.82551   0.82933   0.83138
 Alpha virt. eigenvalues --    0.84677   0.85238   0.88069   0.88077   0.88876
 Alpha virt. eigenvalues --    0.93399   0.94650   1.00797   1.02280   1.09864
 Alpha virt. eigenvalues --    1.12390   1.41200   1.65724   1.69964   1.94053
 Alpha virt. eigenvalues --    2.10175   2.13168   4.00633   4.21786   4.23086
 Alpha virt. eigenvalues --    4.28249
  Beta  occ. eigenvalues -- -101.59462-101.59462-101.53660 -10.34735  -9.51121
  Beta  occ. eigenvalues --   -9.51120  -9.45323  -7.27540  -7.27537  -7.26496
  Beta  occ. eigenvalues --   -7.26496  -7.26466  -7.26466  -7.21372  -7.20782
  Beta  occ. eigenvalues --   -7.20780  -0.94165  -0.86102  -0.80039  -0.67617
  Beta  occ. eigenvalues --   -0.51343  -0.49320  -0.47915  -0.37569  -0.35419
  Beta  occ. eigenvalues --   -0.35361  -0.33815  -0.31012  -0.30914
  Beta virt. eigenvalues --   -0.19947  -0.02364   0.01189   0.09154   0.14269
  Beta virt. eigenvalues --    0.30500   0.34859   0.36247   0.37563   0.39260
  Beta virt. eigenvalues --    0.41188   0.41983   0.42932   0.43255   0.47565
  Beta virt. eigenvalues --    0.49067   0.51071   0.51879   0.58480   0.59997
  Beta virt. eigenvalues --    0.75858   0.78603   0.80443   0.83167   0.83653
  Beta virt. eigenvalues --    0.84227   0.86126   0.87444   0.88504   0.88508
  Beta virt. eigenvalues --    0.90348   0.93840   0.95444   1.02870   1.03066
  Beta virt. eigenvalues --    1.10383   1.12587   1.42163   1.68344   1.71814
  Beta virt. eigenvalues --    1.97441   2.11410   2.14960   4.01785   4.22716
  Beta virt. eigenvalues --    4.23326   4.29066
          Condensed to atoms (all electrons):
              1          2          3          4          5          6
     1  C    5.610331   0.356881   0.086144   0.223895   0.223895  -0.104467
     2  H    0.356881   0.479998  -0.020515  -0.045314  -0.045314   0.000568
     3  H    0.086144  -0.020515   0.715541  -0.035336  -0.035336   0.162192
     4  Cl   0.223895  -0.045314  -0.035336  16.848541  -0.081339   0.004881
     5  Cl   0.223895  -0.045314  -0.035336  -0.081339  16.848541   0.004881
     6  Cl  -0.104467   0.000568   0.162192   0.004881   0.004881  17.105622
 Mulliken atomic charges:
              1
     1  C   -0.396678
     2  H    0.273697
     3  H    0.127310
     4  Cl   0.084674
     5  Cl   0.084674
     6  Cl  -0.173677
 Sum of Mulliken atomic charges =   0.00000
 Mulliken charges with hydrogens summed into heavy atoms:
              1
     1  C    0.004329
     4  Cl   0.084674
     5  Cl   0.084674
     6  Cl  -0.173677
 Sum of Mulliken charges with hydrogens summed into heavy atoms =   0.00000
          Atomic-Atomic Spin Densities.
              1          2          3          4          5          6
     1  C    0.631219  -0.019451   0.050576  -0.069420  -0.069420  -0.090279
     2  H   -0.019451   0.016707   0.001584   0.002165   0.002165   0.004023
     3  H    0.050576   0.001584  -0.112354  -0.000476  -0.000476  -0.006769
     4  Cl  -0.069420   0.002165  -0.000476   0.148485   0.007794   0.009061
     5  Cl  -0.069420   0.002165  -0.000476   0.007794   0.148485   0.009061
     6  Cl  -0.090279   0.004023  -0.006769   0.009061   0.009061   0.507181
 Mulliken atomic spin densities:
              1
     1  C    0.433225
     2  H    0.007194
     3  H   -0.067914
     4  Cl   0.097609
     5  Cl   0.097609
     6  Cl   0.432278
 Sum of Mulliken atomic spin densities =   1.00000
 APT atomic charges:
              1
     1  C   -0.755104
     2  H    0.569005
     3  H    0.154429
     4  Cl   0.120413
     5  Cl   0.120413
     6  Cl  -0.209156
 Sum of APT charges=   0.00000
 APT Atomic charges with hydrogens summed into heavy atoms:
              1
     1  C   -0.031670
     2  H    0.000000
     3  H    0.000000
     4  Cl   0.120413
     5  Cl   0.120413
     6  Cl  -0.209156
 Sum of APT charges=   0.00000
 Electronic spatial extent (au):  <R**2>=            886.9940
 Charge=              0.0000 electrons
 Dipole moment (field-independent basis, Debye):
    X=              1.4618    Y=             -2.2920    Z=              0.0000  Tot=              2.7185
 Quadrupole moment (field-independent basis, Debye-Ang):
   XX=            -42.6816   YY=            -49.4100   ZZ=            -44.7249
   XY=             -0.3659   XZ=              0.0000   YZ=              0.0000
 Traceless Quadrupole moment (field-independent basis, Debye-Ang):
   XX=              2.9239   YY=             -3.8045   ZZ=              0.8806
   XY=             -0.3659   XZ=              0.0000   YZ=              0.0000
 Octapole moment (field-independent basis, Debye-Ang**2):
  XXX=              3.3962  YYY=            -11.5424  ZZZ=              0.0000  XYY=             -2.2654
  XXY=             -3.1594  XXZ=              0.0000  XZZ=             -3.0232  YZZ=             -5.5167
  YYZ=              0.0000  XYZ=              0.0000
 Hexadecapole moment (field-independent basis, Debye-Ang**3):
 XXXX=            -64.0127 YYYY=           -695.3195 ZZZZ=           -339.2760 XXXY=              2.8777
 XXXZ=              0.0000 YYYX=             -0.1118 YYYZ=              0.0000 ZZZX=              0.0000
 ZZZY=              0.0000 XXYY=           -129.3228 XXZZ=            -70.4764 YYZZ=           -170.0989
 XXYZ=              0.0000 YYXZ=              0.0000 ZZXY=              6.8340
 N-N= 2.423192180400D+02 E-N=-5.773800902896D+03  KE= 2.121674472406D+03
 Symmetry A'   KE= 1.361849665693D+03
 Symmetry A"   KE= 7.598248067132D+02
  Exact polarizability:   0.000   0.000   0.000   0.000   0.000   0.000
 Approx polarizability:  40.591  -0.458 111.082   0.000   0.000  79.024
                          Isotropic Fermi Contact Couplings
        Atom                 a.u.       MegaHertz       Gauss      10(-4) cm-1
     1  C(13)              0.21639     243.26559      86.80321      81.14466
     2  H(1)               0.00791      35.33945      12.61000      11.78797
     3  H(2)              -0.01850     -12.69200      -4.52882      -4.23359
     4  Cl(35)             0.01622       7.11307       2.53812       2.37266
     5  Cl(35)             0.01622       7.11307       2.53812       2.37266
     6  Cl(35)             0.02325      10.19511       3.63787       3.40072
 --------------------------------------------------------
       Center         ----  Spin Dipole Couplings  ----
                      3XX-RR        3YY-RR        3ZZ-RR
 --------------------------------------------------------
     1   Atom       -0.166454      0.444015     -0.277561
     2   Atom        0.041856     -0.010982     -0.030874
     3   Atom       -0.069063      0.148669     -0.079606
     4   Atom       -0.254263      0.644738     -0.390476
     5   Atom       -0.254263      0.644738     -0.390476
     6   Atom       -1.110244      2.523652     -1.413408
 --------------------------------------------------------
                        XY            XZ            YZ
 --------------------------------------------------------
     1   Atom       -0.282297      0.000000      0.000000
     2   Atom       -0.003775      0.000000      0.000000
     3   Atom       -0.049904      0.000000      0.000000
     4   Atom       -0.349810      0.110239     -0.145236
     5   Atom       -0.349810     -0.110239      0.145236
     6   Atom       -1.091725      0.000000      0.000000
 --------------------------------------------------------


 ---------------------------------------------------------------------------------
              Anisotropic Spin Dipole Couplings in Principal Axis System
 ---------------------------------------------------------------------------------

       Atom             a.u.   MegaHertz   Gauss  10(-4) cm-1        Axes

              Baa    -0.2776   -37.246   -13.290   -12.424  0.0000  0.0000  1.0000
     1 C(13)  Bbb    -0.2770   -37.169   -13.263   -12.398  0.9312  0.3646  0.0000
              Bcc     0.5545    74.415    26.553    24.822 -0.3646  0.9312  0.0000
 
              Baa    -0.0309   -16.473    -5.878    -5.495  0.0000  0.0000  1.0000
     2 H(1)   Bbb    -0.0113    -6.003    -2.142    -2.002  0.0709  0.9975  0.0000
              Bcc     0.0421    22.476     8.020     7.497  0.9975 -0.0709  0.0000
 
              Baa    -0.0800    -6.549    -2.337    -2.184  0.9770  0.2133  0.0000
     3 H(2)   Bbb    -0.0796    -6.520    -2.327    -2.175  0.0000  0.0000  1.0000
              Bcc     0.1596    13.069     4.663     4.359 -0.2133  0.9770  0.0000
 
              Baa    -0.4553   -23.831    -8.503    -7.949 -0.5789 -0.0769  0.8118
     4 Cl(35) Bbb    -0.3349   -17.530    -6.255    -5.847  0.7466  0.3504  0.5656
              Bcc     0.7903    41.361    14.759    13.796 -0.3280  0.9334 -0.1454
 
              Baa    -0.4553   -23.831    -8.503    -7.949  0.5789  0.0769  0.8118
     5 Cl(35) Bbb    -0.3349   -17.530    -6.255    -5.847  0.7466  0.3504 -0.5656
              Bcc     0.7903    41.361    14.759    13.796 -0.3280  0.9334  0.1454
 
              Baa    -1.4134   -73.974   -26.396   -24.675  0.0000  0.0000  1.0000
     6 Cl(35) Bbb    -1.4130   -73.953   -26.388   -24.668  0.9636  0.2672  0.0000
              Bcc     2.8264   147.928    52.784    49.343 -0.2672  0.9636  0.0000
 

 ---------------------------------------------------------------------------------

 Calling FoFJK, ICntrl=    100147 FMM=F ISym2X=1 I1Cent= 0 IOpClX= 1 NMat=1 NMatS=1 NMatT=0.
 ***** Axes restored to original set *****
 -------------------------------------------------------------------
 Center     Atomic                   Forces (Hartrees/Bohr)
 Number     Number              X              Y              Z
 -------------------------------------------------------------------
      1        6           0.020203445   -0.013200575    0.018243980
      2        1          -0.008047156    0.008382089   -0.012832730
      3        1           0.012664437   -0.000467315   -0.002473344
      4       17          -0.008552401    0.007111444    0.000860291
      5       17          -0.009942753   -0.002377664   -0.004465948
      6       17          -0.006325572    0.000552019    0.000667751
 -------------------------------------------------------------------
 Cartesian Forces:  Max     0.020203445 RMS     0.009636078

 GradGradGradGradGradGradGradGradGradGradGradGradGradGradGradGradGradGrad
 Berny optimization.
 Internal  Forces:  Max     0.022725485 RMS     0.008341942
 Search for a saddle point.
 Step number   1 out of a maximum of   27
 All quantities printed in internal units (Hartrees-Bohrs-Radians)
 Swaping is turned off.
 Second derivative matrix not updated -- analytic derivatives used.
 The second derivative matrix:
                          R1        R2        R3        R4        R5
           R1           0.39843
           R2           0.00047   0.04420
           R3           0.00278   0.00991   0.21685
           R4           0.00278   0.00991   0.03738   0.21685
           R5           0.00090   0.08710  -0.00212  -0.00212   0.09223
           A1           0.00150   0.00210  -0.00143  -0.00448  -0.00091
           A2          -0.00033  -0.00095   0.00799  -0.01935   0.00025
           A3           0.00046  -0.00475  -0.01680   0.01569   0.00095
           A4          -0.00134   0.00270  -0.00392  -0.01474  -0.00035
           A5          -0.00237   0.00545  -0.01437  -0.00716  -0.00071
           A6           0.00209  -0.00455   0.02852   0.03005   0.00078
           A7           0.00087   0.00140  -0.00286   0.00088   0.00103
           A8          -0.00098  -0.00180   0.00058   0.00181  -0.00116
           D1           0.00081   0.00364   0.00074  -0.02637  -0.00118
           D2          -0.00067  -0.00300   0.02083   0.00027   0.00097
           D3           0.00115  -0.00686   0.01697   0.00430   0.00136
           D4           0.00182  -0.00386  -0.00387   0.00404   0.00039
                          A1        A2        A3        A4        A5
           A1           0.01414
           A2          -0.00926   0.04916
           A3          -0.01504  -0.01759   0.08743
           A4          -0.00840   0.00689   0.02372   0.03688
           A5          -0.00947   0.02661  -0.03038  -0.00735   0.06753
           A6           0.02803  -0.05581  -0.04815  -0.05175  -0.04694
           A7           0.00012  -0.00108   0.00034   0.00241  -0.00256
           A8           0.00015   0.00001   0.00097   0.00021  -0.00160
           D1           0.00650   0.02298  -0.01467   0.01652   0.00020
           D2          -0.00231   0.00582  -0.01652   0.00026  -0.01115
           D3          -0.00339   0.01526   0.00252  -0.00872  -0.01476
           D4          -0.00108   0.00944   0.01904  -0.00898  -0.00361
                          A6        A7        A8        D1        D2
           A6           0.17462
           A7           0.00077   0.03105
           A8           0.00027  -0.00096   0.01188
           D1          -0.03154   0.00096   0.00031   0.03215
           D2           0.02390   0.00122   0.00020   0.00090   0.01977
           D3           0.00909  -0.00065   0.00077  -0.00015   0.01164
           D4          -0.01481  -0.00186   0.00056  -0.00104  -0.00813
                          D3        D4
           D3           0.02580
           D4           0.01415   0.02228
 ITU=  0
     Eigenvalues ---   -0.02468   0.01173   0.02758   0.03074   0.05321
     Eigenvalues ---    0.05868   0.12187   0.15863   0.19671   0.20690
     Eigenvalues ---    0.30118   0.39870
 Eigenvectors required to have negative eigenvalues:
                          R2        R5        D3        D1        D2
   1                   -0.78858   0.59232  -0.08612   0.05753  -0.05650
                          A1        R4        R3        A3        A2
   1                    0.05211   0.04593   0.04516  -0.04063  -0.03506
 RFO step:  Lambda0=1.449333428D-03 Lambda=-7.54921989D-03.
 Linear search not attempted -- option 19 set.
 Iteration  1 RMS(Cart)=  0.06028633 RMS(Int)=  0.00623356
 Iteration  2 RMS(Cart)=  0.00551327 RMS(Int)=  0.00400106
 Iteration  3 RMS(Cart)=  0.00001317 RMS(Int)=  0.00400103
 Iteration  4 RMS(Cart)=  0.00000006 RMS(Int)=  0.00400103
 ClnCor:  largest displacement from symmetrization is 6.86D-03 for atom     5.
 Variable       Old X    -DE/DX   Delta X   Delta X   Delta X     New X
                                 (Linear)    (Quad)   (Total)
    R1        2.02201   0.01391   0.00000   0.03395   0.03395   2.05596
    R2        2.57003  -0.00658   0.00000   0.15931   0.15931   2.72933
    R3        3.32592  -0.00049   0.00000  -0.04549  -0.04466   3.28126
    R4        3.32592  -0.00049   0.00000  -0.04533  -0.04466   3.28126
    R5        2.83459   0.00632   0.00000  -0.10024  -0.10026   2.73433
    A1        1.91063  -0.00067   0.00000  -0.11594  -0.11474   1.79589
    A2        1.91063  -0.00424   0.00000   0.05476   0.04412   1.95475
    A3        1.91063   0.00034   0.00000   0.05262   0.04412   1.95475
    A4        1.91063  -0.00799   0.00000  -0.05394  -0.05004   1.86059
    A5        1.91063  -0.01017   0.00000  -0.05182  -0.05004   1.86059
    A6        1.91063   0.02273   0.00000   0.11431   0.10709   2.01772
    A7        3.14159   0.00128   0.00000   0.02719   0.02288   3.16447
    A8        3.14159  -0.00144   0.00000  -0.06849  -0.07170   3.06990
    D1        2.09440  -0.00830   0.00000  -0.14149  -0.14279   1.95160
    D2       -2.09440   0.00684   0.00000   0.14150   0.14279  -1.95160
    D3        2.09440   0.00893   0.00000   0.16929   0.17303   2.26743
    D4       -2.09439   0.00209   0.00000   0.02779   0.03024  -2.06415
         Item               Value     Threshold  Converged?
 Maximum Force            0.022725     0.000450     NO 
 RMS     Force            0.008342     0.000300     NO 
 Maximum Displacement     0.138792     0.001800     NO 
 RMS     Displacement     0.058249     0.001200     NO 
 Predicted change in Energy=-3.370494D-03
 GradGradGradGradGradGradGradGradGradGradGradGradGradGradGradGradGradGrad

                          Input orientation:                          
 ---------------------------------------------------------------------
 Center     Atomic      Atomic             Coordinates (Angstroms)
 Number     Number       Type             X           Y           Z
 ---------------------------------------------------------------------
      1          6           0       -1.810547    1.157616   -0.300782
      2          1           0       -1.775404    1.685942   -1.251209
      3          1           0       -3.216732    1.179028    0.028139
      4         17           0       -0.993032    2.029579    0.958709
      5         17           0       -1.365482   -0.512381   -0.468093
      6         17           0       -4.637744    1.237742    0.294475
 ---------------------------------------------------------------------
                    Distance matrix (angstroms):
                    1          2          3          4          5
     1  C    0.000000
     2  H    1.087968   0.000000
     3  H    1.444301   1.992767   0.000000
     4  Cl   1.736366   2.369373   2.556216   0.000000
     5  Cl   1.736366   2.369373   2.556216   2.938715   0.000000
     6  Cl   2.890293   3.283750   1.446947   3.788422   3.788422
                    6
     6  Cl   0.000000
 Stoichiometry    CH2Cl3(2)
 Framework group  CS[SG(CH2Cl),X(Cl2)]
 Deg. of freedom     8
 Full point group                 CS      NOp   2
 Largest Abelian subgroup         CS      NOp   2
 Largest concise Abelian subgroup CS      NOp   2
                         Standard orientation:                         
 ---------------------------------------------------------------------
 Center     Atomic      Atomic             Coordinates (Angstroms)
 Number     Number       Type             X           Y           Z
 ---------------------------------------------------------------------
      1          6           0        0.698725    0.042493    0.000000
      2          1           0        1.472446    0.807366    0.000000
      3          1           0       -0.520298    0.817083    0.000000
      4         17           0        0.698725   -0.882686    1.469358
      5         17           0        0.698725   -0.882686   -1.469358
      6         17           0       -1.700067    1.654818    0.000000
 ---------------------------------------------------------------------
 Rotational constants (GHZ):      3.1960464      1.7071154      1.1488263
 Standard basis: 6-31G(d) (6D, 7F)
 There are    48 symmetry adapted basis functions of A'  symmetry.
 There are    28 symmetry adapted basis functions of A"  symmetry.
 Integral buffers will be    131072 words long.
 Raffenetti 2 integral format.
 Two-electron integral symmetry is turned on.
    76 basis functions,   192 primitive gaussians,    76 cartesian basis functions
    30 alpha electrons       29 beta electrons
       nuclear repulsion energy       242.5945265673 Hartrees.
 NAtoms=    6 NActive=    6 NUniq=    5 SFac= 1.44D+00 NAtFMM=   60 NAOKFM=F Big=F
 One-electron integrals computed using PRISM.
 NBasis=    76 RedAO= T  NBF=    48    28
 NBsUse=    76 1.00D-06 NBFU=    48    28
 Initial guess read from the read-write file.
 B after Tr=     0.000000    0.000000    0.000000
         Rot=    1.000000    0.000000    0.000000    0.000000 Ang=   0.00 deg.
 Initial guess orbital symmetries:
 Alpha Orbitals:
       Occupied  (A") (A') (A') (A') (A") (A') (A') (A') (A") (A")
                 (A') (A') (A") (A') (A') (A") (A') (A") (A') (A')
                 (A') (A') (A") (A') (A") (A') (A") (A') (A") (A')
       Virtual   (A') (A") (A') (A') (A') (A") (A') (A") (A') (A')
                 (A') (A') (A") (A') (A") (A") (A') (A') (A") (A")
                 (A') (A') (A") (A") (A') (A') (A") (A') (A") (A')
                 (A") (A') (A') (A") (A') (A') (A') (A") (A') (A')
                 (A") (A') (A') (A') (A") (A')
 Beta  Orbitals:
       Occupied  (A") (A') (A') (A') (A") (A') (A') (A') (A") (A")
                 (A') (A") (A') (A') (A') (A") (A') (A") (A') (A')
                 (A') (A') (A") (A') (A') (A") (A") (A') (A")
       Virtual   (A') (A') (A") (A') (A') (A') (A") (A') (A") (A')
                 (A') (A') (A') (A") (A") (A') (A") (A') (A') (A")
                 (A") (A') (A') (A") (A") (A') (A') (A") (A") (A')
                 (A') (A") (A') (A") (A') (A') (A') (A') (A") (A')
                 (A') (A") (A') (A') (A') (A") (A')
 Initial guess <Sx>= 0.0000 <Sy>= 0.0000 <Sz>= 0.5000 <S**2>= 0.7568 S= 0.5034
 Harris functional with IExCor=  402 diagonalized for initial guess.
 ExpMin= 1.43D-01 ExpMax= 2.52D+04 ExpMxC= 3.78D+03 IAcc=1 IRadAn=         1 AccDes= 0.00D+00
 HarFok:  IExCor=  402 AccDes= 0.00D+00 IRadAn=         1 IDoV= 1
 ScaDFX=  1.000000  1.000000  1.000000  1.000000
 FoFCou: FMM=F IPFlag=           0 FMFlag=      100000 FMFlg1=           0
         NFxFlg=           0 DoJE=T BraDBF=F KetDBF=T FulRan=T
         Omega=  0.000000  0.000000  1.000000  0.000000  0.000000 ICntrl=     500 IOpCl=  0
         NMat0=    1 NMatS0=    1 NMatT0=    0 NMatD0=    1 NMtDS0=    0 NMtDT0=    0
         I1Cent=           4 NGrid=           0.
 Petite list used in FoFCou.
 Requested convergence on RMS density matrix=1.00D-08 within 128 cycles.
 Requested convergence on MAX density matrix=1.00D-06.
 Requested convergence on             energy=1.00D-06.
 No special actions if energy rises.
 Keep R1 and R2 ints in memory in canonical form, NReq=9546684.
 Integral accuracy reduced to 1.0D-05 until final iterations.
 Initial convergence to 1.0D-05 achieved.  Increase integral accuracy.
 SCF Done:  E(UB3LYP) =  -1419.82688277     A.U. after   17 cycles
             Convg  =    0.4894D-08             -V/T =  2.0032
 <Sx>= 0.0000 <Sy>= 0.0000 <Sz>= 0.5000 <S**2>= 0.7549 S= 0.5024
 <L.S>= 0.000000000000E+00
 Annihilation of the first spin contaminant:
 S**2 before annihilation     0.7549,   after     0.7500
 Calling FoFJK, ICntrl=      2127 FMM=F ISym2X=1 I1Cent= 0 IOpClX= 1 NMat=1 NMatS=1 NMatT=0.
 ***** Axes restored to original set *****
 -------------------------------------------------------------------
 Center     Atomic                   Forces (Hartrees/Bohr)
 Number     Number              X              Y              Z
 -------------------------------------------------------------------
      1        6           0.008112291   -0.001191392    0.000004939
      2        1          -0.003750680    0.000824494   -0.000489829
      3        1           0.001437216    0.000112412   -0.000575439
      4       17          -0.001388738    0.002000925    0.001538704
      5       17          -0.001972205   -0.001981221   -0.000696475
      6       17          -0.002437884    0.000234781    0.000218100
 -------------------------------------------------------------------
 Cartesian Forces:  Max     0.008112291 RMS     0.002441211

 GradGradGradGradGradGradGradGradGradGradGradGradGradGradGradGradGradGrad
 Berny optimization.
 Internal  Forces:  Max     0.003993267 RMS     0.001777126
 Search for a saddle point.
 Step number   2 out of a maximum of   27
 All quantities printed in internal units (Hartrees-Bohrs-Radians)
 Swaping is turned off.
 Update second derivatives using D2CorX and points    1    2
 The second derivative matrix:
                          R1        R2        R3        R4        R5
           R1           0.39827
           R2          -0.00012   0.04212
           R3           0.00234   0.00793   0.21713
           R4           0.00237   0.00805   0.03767   0.21715
           R5           0.00051   0.08515  -0.00122  -0.00124   0.09390
           A1           0.00170   0.00266  -0.00011  -0.00323   0.00062
           A2          -0.00011   0.00014   0.00762  -0.01972  -0.00052
           A3           0.00042  -0.00478  -0.01729   0.01523   0.00034
           A4          -0.00102   0.00392  -0.00324  -0.01410   0.00019
           A5          -0.00194   0.00714  -0.01363  -0.00649  -0.00024
           A6           0.00119  -0.00806   0.02696   0.02860  -0.00024
           A7           0.00085   0.00137  -0.00311   0.00064   0.00071
           A8          -0.00090  -0.00169   0.00139   0.00257  -0.00016
           D1           0.00133   0.00547   0.00251  -0.02470   0.00057
           D2          -0.00113  -0.00457   0.01909  -0.00137  -0.00081
           D3           0.00050  -0.00915   0.01481   0.00228  -0.00075
           D4           0.00163  -0.00458  -0.00428   0.00365   0.00006
                          A1        A2        A3        A4        A5
           A1           0.01428
           A2          -0.01007   0.04950
           A3          -0.01520  -0.01727   0.08753
           A4          -0.00890   0.00656   0.02384   0.03628
           A5          -0.01024   0.02630  -0.03017  -0.00814   0.06651
           A6           0.02963  -0.05514  -0.04858  -0.05009  -0.04482
           A7           0.00004  -0.00092   0.00039   0.00248  -0.00244
           A8           0.00037  -0.00050   0.00083  -0.00001  -0.00197
           D1           0.00602   0.02201  -0.01464   0.01544  -0.00129
           D2          -0.00198   0.00680  -0.01649   0.00123  -0.00978
           D3          -0.00276   0.01644   0.00248  -0.00739  -0.01292
           D4          -0.00078   0.00964   0.01897  -0.00862  -0.00313
                          A6        A7        A8        D1        D2
           A6           0.17018
           A7           0.00054   0.03107
           A8           0.00102  -0.00103   0.01210
           D1          -0.02843   0.00097   0.00023   0.03055
           D2           0.02105   0.00122   0.00020   0.00227   0.01861
           D3           0.00525  -0.00068   0.00090   0.00187   0.00991
           D4          -0.01580  -0.00190   0.00069  -0.00040  -0.00870
                          D3        D4
           D3           0.02327
           D4           0.01336   0.02206
 ITU=  0  0
     Eigenvalues ---   -0.02371   0.01194   0.02679   0.03058   0.05184
     Eigenvalues ---    0.05684   0.11966   0.15761   0.19633   0.20635
     Eigenvalues ---    0.29450   0.39843
 Eigenvectors required to have negative eigenvalues:
                          R2        R5        D3        D1        D2
   1                   -0.79735   0.57629  -0.10197   0.06468  -0.06139
                          A1        D4        R4        A3        R3
   1                    0.05027  -0.04058   0.04011  -0.03753   0.03752
 RFO step:  Lambda0=1.872328802D-07 Lambda=-6.45446067D-04.
 Linear search not attempted -- option 19 set.
 Iteration  1 RMS(Cart)=  0.02531388 RMS(Int)=  0.00079299
 Iteration  2 RMS(Cart)=  0.00072576 RMS(Int)=  0.00033242
 Iteration  3 RMS(Cart)=  0.00000022 RMS(Int)=  0.00033242
 ClnCor:  largest displacement from symmetrization is 2.44D-03 for atom     5.
 Variable       Old X    -DE/DX   Delta X   Delta X   Delta X     New X
                                 (Linear)    (Quad)   (Total)
    R1        2.05596   0.00071   0.00000   0.00200   0.00200   2.05796
    R2        2.72933   0.00089   0.00000  -0.00278  -0.00278   2.72656
    R3        3.28126   0.00147   0.00000  -0.00319  -0.00289   3.27837
    R4        3.28126   0.00147   0.00000  -0.00248  -0.00289   3.27837
    R5        2.73433   0.00244   0.00000   0.02984   0.02984   2.76417
    A1        1.79589  -0.00094   0.00000  -0.04981  -0.04967   1.74622
    A2        1.95475  -0.00086   0.00000   0.01644   0.01487   1.96962
    A3        1.95475   0.00038   0.00000   0.01441   0.01487   1.96962
    A4        1.86059  -0.00141   0.00000  -0.00777  -0.00802   1.85257
    A5        1.86059  -0.00199   0.00000  -0.00773  -0.00802   1.85257
    A6        2.01772   0.00399   0.00000   0.02216   0.02171   2.03943
    A7        3.16447   0.00032   0.00000   0.00896   0.01015   3.17462
    A8        3.06990  -0.00044   0.00000  -0.03889  -0.03806   3.03184
    D1        1.95160  -0.00231   0.00000  -0.05523  -0.05597   1.89563
    D2       -1.95160   0.00203   0.00000   0.05619   0.05597  -1.89563
    D3        2.26743   0.00283   0.00000   0.05820   0.05890   2.32633
    D4       -2.06415   0.00080   0.00000   0.00201   0.00292  -2.06123
         Item               Value     Threshold  Converged?
 Maximum Force            0.003993     0.000450     NO 
 RMS     Force            0.001777     0.000300     NO 
 Maximum Displacement     0.073192     0.001800     NO 
 RMS     Displacement     0.025463     0.001200     NO 
 Predicted change in Energy=-3.288203D-04
 GradGradGradGradGradGradGradGradGradGradGradGradGradGradGradGradGradGrad

                          Input orientation:                          
 ---------------------------------------------------------------------
 Center     Atomic      Atomic             Coordinates (Angstroms)
 Number     Number       Type             X           Y           Z
 ---------------------------------------------------------------------
      1          6           0       -1.793942    1.151644   -0.294477
      2          1           0       -1.814135    1.686842   -1.242701
      3          1           0       -3.198258    1.171882    0.036047
      4         17           0       -0.989827    2.037263    0.962000
      5         17           0       -1.364470   -0.519663   -0.473202
      6         17           0       -4.639391    1.249344    0.274235
 ---------------------------------------------------------------------
                    Distance matrix (angstroms):
                    1          2          3          4          5
     1  C    0.000000
     2  H    1.089024   0.000000
     3  H    1.442831   1.953504   0.000000
     4  Cl   1.734836   2.379703   2.546260   0.000000
     5  Cl   1.734836   2.379703   2.546260   2.956016   0.000000
     6  Cl   2.903371   3.236444   1.462737   3.796467   3.796467
                    6
     6  Cl   0.000000
 Stoichiometry    CH2Cl3(2)
 Framework group  CS[SG(CH2Cl),X(Cl2)]
 Deg. of freedom     8
 Full point group                 CS      NOp   2
 Largest Abelian subgroup         CS      NOp   2
 Largest concise Abelian subgroup CS      NOp   2
                         Standard orientation:                         
 ---------------------------------------------------------------------
 Center     Atomic      Atomic             Coordinates (Angstroms)
 Number     Number       Type             X           Y           Z
 ---------------------------------------------------------------------
      1          6           0        0.699262    0.025131    0.000000
      2          1           0        1.429757    0.832813    0.000000
      3          1           0       -0.523307    0.791346    0.000000
      4         17           0        0.699262   -0.883246    1.478008
      5         17           0        0.699262   -0.883246   -1.478008
      6         17           0       -1.698643    1.662084    0.000000
 ---------------------------------------------------------------------
 Rotational constants (GHZ):      3.1650066      1.7034833      1.1419557
 Standard basis: 6-31G(d) (6D, 7F)
 There are    48 symmetry adapted basis functions of A'  symmetry.
 There are    28 symmetry adapted basis functions of A"  symmetry.
 Integral buffers will be    131072 words long.
 Raffenetti 2 integral format.
 Two-electron integral symmetry is turned on.
    76 basis functions,   192 primitive gaussians,    76 cartesian basis functions
    30 alpha electrons       29 beta electrons
       nuclear repulsion energy       242.0618177504 Hartrees.
 NAtoms=    6 NActive=    6 NUniq=    5 SFac= 1.44D+00 NAtFMM=   60 NAOKFM=F Big=F
 One-electron integrals computed using PRISM.
 NBasis=    76 RedAO= T  NBF=    48    28
 NBsUse=    76 1.00D-06 NBFU=    48    28
 Initial guess read from the read-write file.
 B after Tr=     0.000000    0.000000    0.000000
         Rot=    1.000000    0.000000    0.000000    0.000000 Ang=   0.00 deg.
 Initial guess orbital symmetries:
 Alpha Orbitals:
       Occupied  (A") (A') (A') (A') (A") (A') (A') (A') (A") (A")
                 (A') (A") (A') (A') (A') (A") (A') (A") (A') (A')
                 (A') (A') (A") (A') (A") (A') (A") (A') (A") (A')
       Virtual   (A') (A") (A') (A') (A') (A") (A') (A") (A') (A')
                 (A') (A') (A") (A") (A') (A") (A') (A') (A") (A")
                 (A') (A') (A") (A") (A') (A") (A') (A") (A') (A')
                 (A") (A') (A') (A") (A') (A') (A') (A") (A') (A')
                 (A") (A') (A') (A') (A") (A')
 Beta  Orbitals:
       Occupied  (A") (A') (A') (A') (A") (A') (A') (A') (A") (A")
                 (A') (A") (A') (A') (A') (A") (A') (A") (A') (A')
                 (A') (A") (A') (A') (A") (A') (A") (A') (A")
       Virtual   (A') (A') (A") (A') (A') (A') (A") (A') (A") (A')
                 (A') (A') (A") (A') (A") (A') (A") (A') (A') (A")
                 (A") (A') (A') (A") (A") (A') (A") (A') (A") (A')
                 (A') (A") (A') (A') (A") (A') (A') (A') (A") (A')
                 (A') (A") (A') (A') (A") (A') (A')
 Initial guess <Sx>= 0.0000 <Sy>= 0.0000 <Sz>= 0.5000 <S**2>= 0.7549 S= 0.5025
 Harris functional with IExCor=  402 diagonalized for initial guess.
 ExpMin= 1.43D-01 ExpMax= 2.52D+04 ExpMxC= 3.78D+03 IAcc=1 IRadAn=         1 AccDes= 0.00D+00
 HarFok:  IExCor=  402 AccDes= 0.00D+00 IRadAn=         1 IDoV= 1
 ScaDFX=  1.000000  1.000000  1.000000  1.000000
 FoFCou: FMM=F IPFlag=           0 FMFlag=      100000 FMFlg1=           0
         NFxFlg=           0 DoJE=T BraDBF=F KetDBF=T FulRan=T
         Omega=  0.000000  0.000000  1.000000  0.000000  0.000000 ICntrl=     500 IOpCl=  0
         NMat0=    1 NMatS0=    1 NMatT0=    0 NMatD0=    1 NMtDS0=    0 NMtDT0=    0
         I1Cent=           4 NGrid=           0.
 Petite list used in FoFCou.
 Requested convergence on RMS density matrix=1.00D-08 within 128 cycles.
 Requested convergence on MAX density matrix=1.00D-06.
 Requested convergence on             energy=1.00D-06.
 No special actions if energy rises.
 Keep R1 and R2 ints in memory in canonical form, NReq=9546684.
 Integral accuracy reduced to 1.0D-05 until final iterations.
 Initial convergence to 1.0D-05 achieved.  Increase integral accuracy.
 SCF Done:  E(UB3LYP) =  -1419.82723542     A.U. after   13 cycles
             Convg  =    0.9661D-08             -V/T =  2.0032
 <Sx>= 0.0000 <Sy>= 0.0000 <Sz>= 0.5000 <S**2>= 0.7550 S= 0.5025
 <L.S>= 0.000000000000E+00
 Annihilation of the first spin contaminant:
 S**2 before annihilation     0.7550,   after     0.7500
 Calling FoFJK, ICntrl=      2127 FMM=F ISym2X=1 I1Cent= 0 IOpClX= 1 NMat=1 NMatS=1 NMatT=0.
 ***** Axes restored to original set *****
 -------------------------------------------------------------------
 Center     Atomic                   Forces (Hartrees/Bohr)
 Number     Number              X              Y              Z
 -------------------------------------------------------------------
      1        6           0.001092042   -0.000080699   -0.000141294
      2        1          -0.000579546    0.000002799    0.000146297
      3        1          -0.000966885    0.000104476    0.000066263
      4       17          -0.000231981    0.000480771    0.000317389
      5       17          -0.000369001   -0.000454387   -0.000207516
      6       17           0.001055371   -0.000052960   -0.000181139
 -------------------------------------------------------------------
 Cartesian Forces:  Max     0.001092042 RMS     0.000497063

 GradGradGradGradGradGradGradGradGradGradGradGradGradGradGradGradGradGrad
 Berny optimization.
 Internal  Forces:  Max     0.001072062 RMS     0.000425365
 Search for a saddle point.
 Step number   3 out of a maximum of   27
 All quantities printed in internal units (Hartrees-Bohrs-Radians)
 Swaping is turned off.
 Update second derivatives using D2CorX and points    1    2    3
 The second derivative matrix:
                          R1        R2        R3        R4        R5
           R1           0.39831
           R2          -0.00003   0.04236
           R3           0.00226   0.00775   0.21720
           R4           0.00229   0.00788   0.03774   0.21723
           R5           0.00072   0.08546  -0.00149  -0.00151   0.09527
           A1           0.00133   0.00222   0.00111  -0.00214  -0.00280
           A2          -0.00001   0.00021   0.00720  -0.02009   0.00057
           A3           0.00050  -0.00476  -0.01774   0.01483   0.00146
           A4          -0.00106   0.00393  -0.00291  -0.01382  -0.00053
           A5          -0.00197   0.00716  -0.01329  -0.00620  -0.00097
           A6           0.00129  -0.00809   0.02614   0.02791   0.00160
           A7           0.00092   0.00145  -0.00336   0.00041   0.00141
           A8          -0.00119  -0.00202   0.00228   0.00337  -0.00273
           D1           0.00093   0.00505   0.00396  -0.02342  -0.00338
           D2          -0.00071  -0.00410   0.01767  -0.00263   0.00311
           D3           0.00096  -0.00860   0.01330   0.00093   0.00343
           D4           0.00167  -0.00450  -0.00437   0.00357   0.00032
                          A1        A2        A3        A4        A5
           A1           0.01452
           A2          -0.00930   0.04891
           A3          -0.01393  -0.01808   0.08647
           A4          -0.01030   0.00733   0.02481   0.03543
           A5          -0.01185   0.02715  -0.02910  -0.00906   0.06550
           A6           0.03302  -0.05701  -0.05095  -0.04801  -0.04254
           A7           0.00008  -0.00112   0.00008   0.00280  -0.00207
           A8           0.00070   0.00001   0.00171  -0.00100  -0.00311
           D1           0.00524   0.02333  -0.01267   0.01343  -0.00357
           D2          -0.00178   0.00572  -0.01817   0.00302  -0.00775
           D3          -0.00286   0.01542   0.00082  -0.00559  -0.01086
           D4          -0.00109   0.00969   0.01899  -0.00861  -0.00312
                          A6        A7        A8        D1        D2
           A6           0.16505
           A7          -0.00025   0.03104
           A8           0.00342  -0.00103   0.01245
           D1          -0.02353   0.00126  -0.00017   0.02830
           D2           0.01671   0.00107   0.00018   0.00377   0.01781
           D3           0.00090  -0.00078   0.00064   0.00308   0.00944
           D4          -0.01581  -0.00184   0.00046  -0.00070  -0.00838
                          D3        D4
           D3           0.02316
           D4           0.01373   0.02211
 ITU=  0  0  0
     Eigenvalues ---   -0.02527   0.01208   0.02617   0.03012   0.05058
     Eigenvalues ---    0.05614   0.11837   0.15825   0.19605   0.20532
     Eigenvalues ---    0.29073   0.39847
 Eigenvectors required to have negative eigenvalues:
                          R2        R5        D3        D1        D2
   1                   -0.78192   0.56932  -0.14493   0.10835  -0.10557
                          A1        A6        A3        R4        R3
   1                    0.08919  -0.04757  -0.04505   0.04246   0.03984
 RFO step:  Lambda0=1.999745516D-05 Lambda=-1.81987573D-05.
 Linear search not attempted -- option 19 set.
 Iteration  1 RMS(Cart)=  0.00767015 RMS(Int)=  0.00000986
 Iteration  2 RMS(Cart)=  0.00001324 RMS(Int)=  0.00000162
 Iteration  3 RMS(Cart)=  0.00000000 RMS(Int)=  0.00000162
 ClnCor:  largest displacement from symmetrization is 4.44D-04 for atom     5.
 Variable       Old X    -DE/DX   Delta X   Delta X   Delta X     New X
                                 (Linear)    (Quad)   (Total)
    R1        2.05796  -0.00012   0.00000  -0.00035  -0.00035   2.05761
    R2        2.72656  -0.00011   0.00000  -0.02839  -0.02839   2.69817
    R3        3.27837   0.00037   0.00000   0.00166   0.00172   3.28009
    R4        3.27837   0.00037   0.00000   0.00178   0.00172   3.28009
    R5        2.76417  -0.00107   0.00000   0.01353   0.01353   2.77771
    A1        1.74622  -0.00010   0.00000  -0.00331  -0.00331   1.74291
    A2        1.96962  -0.00025   0.00000   0.00041   0.00023   1.96985
    A3        1.96962  -0.00006   0.00000  -0.00004   0.00023   1.96985
    A4        1.85257  -0.00030   0.00000  -0.00067  -0.00070   1.85187
    A5        1.85257  -0.00039   0.00000  -0.00061  -0.00070   1.85187
    A6        2.03943   0.00089   0.00000   0.00298   0.00299   2.04242
    A7        3.17462   0.00001   0.00000   0.00128   0.00137   3.17599
    A8        3.03184  -0.00002   0.00000  -0.00502  -0.00496   3.02687
    D1        1.89563  -0.00039   0.00000  -0.00406  -0.00416   1.89147
    D2       -1.89563   0.00035   0.00000   0.00423   0.00416  -1.89147
    D3        2.32633   0.00048   0.00000   0.00373   0.00377   2.33009
    D4       -2.06123   0.00013   0.00000  -0.00050  -0.00039  -2.06162
         Item               Value     Threshold  Converged?
 Maximum Force            0.001072     0.000450     NO 
 RMS     Force            0.000425     0.000300     NO 
 Maximum Displacement     0.022841     0.001800     NO 
 RMS     Displacement     0.007691     0.001200     NO 
 Predicted change in Energy= 9.140532D-07
 GradGradGradGradGradGradGradGradGradGradGradGradGradGradGradGradGradGrad

                          Input orientation:                          
 ---------------------------------------------------------------------
 Center     Atomic      Atomic             Coordinates (Angstroms)
 Number     Number       Type             X           Y           Z
 ---------------------------------------------------------------------
      1          6           0       -1.796720    1.151125   -0.292826
      2          1           0       -1.821451    1.686690   -1.240522
      3          1           0       -3.186172    1.170511    0.035336
      4         17           0       -0.992918    2.039548    0.963131
      5         17           0       -1.368101   -0.521070   -0.474144
      6         17           0       -4.634840    1.250454    0.271069
 ---------------------------------------------------------------------
                    Distance matrix (angstroms):
                    1          2          3          4          5
     1  C    0.000000
     2  H    1.088839   0.000000
     3  H    1.427810   1.938225   0.000000
     4  Cl   1.735749   2.380559   2.535033   0.000000
     5  Cl   1.735749   2.380559   2.535033   2.960285   0.000000
     6  Cl   2.895301   3.223409   1.469898   3.790148   3.790148
                    6
     6  Cl   0.000000
 Stoichiometry    CH2Cl3(2)
 Framework group  CS[SG(CH2Cl),X(Cl2)]
 Deg. of freedom     8
 Full point group                 CS      NOp   2
 Largest Abelian subgroup         CS      NOp   2
 Largest concise Abelian subgroup CS      NOp   2
                         Standard orientation:                         
 ---------------------------------------------------------------------
 Center     Atomic      Atomic             Coordinates (Angstroms)
 Number     Number       Type             X           Y           Z
 ---------------------------------------------------------------------
      1          6           0        0.696127    0.024011    0.000000
      2          1           0        1.423831    0.833960    0.000000
      3          1           0       -0.513705    0.782264    0.000000
      4         17           0        0.696127   -0.882632    1.480142
      5         17           0        0.696127   -0.882632   -1.480142
      6         17           0       -1.691484    1.661717    0.000000
 ---------------------------------------------------------------------
 Rotational constants (GHZ):      3.1571195      1.7115022      1.1442976
 Standard basis: 6-31G(d) (6D, 7F)
 There are    48 symmetry adapted basis functions of A'  symmetry.
 There are    28 symmetry adapted basis functions of A"  symmetry.
 Integral buffers will be    131072 words long.
 Raffenetti 2 integral format.
 Two-electron integral symmetry is turned on.
    76 basis functions,   192 primitive gaussians,    76 cartesian basis functions
    30 alpha electrons       29 beta electrons
       nuclear repulsion energy       242.1762672951 Hartrees.
 NAtoms=    6 NActive=    6 NUniq=    5 SFac= 1.44D+00 NAtFMM=   60 NAOKFM=F Big=F
 One-electron integrals computed using PRISM.
 NBasis=    76 RedAO= T  NBF=    48    28
 NBsUse=    76 1.00D-06 NBFU=    48    28
 Initial guess read from the read-write file.
 B after Tr=     0.000000    0.000000    0.000000
         Rot=    1.000000    0.000000    0.000000    0.000000 Ang=   0.00 deg.
 Initial guess orbital symmetries:
 Alpha Orbitals:
       Occupied  (A") (A') (A') (A') (A") (A') (A') (A') (A") (A")
                 (A') (A") (A') (A') (A') (A") (A') (A") (A') (A')
                 (A') (A') (A") (A') (A") (A') (A") (A') (A") (A')
       Virtual   (A') (A") (A') (A') (A') (A") (A') (A") (A') (A')
                 (A') (A') (A") (A") (A') (A") (A') (A') (A") (A")
                 (A') (A') (A") (A") (A') (A") (A') (A") (A') (A')
                 (A") (A') (A') (A") (A') (A') (A') (A') (A") (A')
                 (A") (A') (A') (A') (A") (A')
 Beta  Orbitals:
       Occupied  (A") (A') (A') (A') (A") (A') (A') (A') (A") (A")
                 (A') (A") (A') (A') (A') (A") (A') (A") (A') (A')
                 (A') (A") (A') (A') (A") (A') (A") (A') (A")
       Virtual   (A') (A') (A") (A') (A') (A') (A") (A') (A") (A')
                 (A') (A') (A") (A') (A") (A') (A") (A') (A') (A")
                 (A") (A') (A') (A") (A") (A') (A") (A') (A") (A')
                 (A') (A") (A') (A') (A") (A') (A') (A') (A') (A")
                 (A') (A") (A') (A') (A") (A') (A')
 Initial guess <Sx>= 0.0000 <Sy>= 0.0000 <Sz>= 0.5000 <S**2>= 0.7550 S= 0.5025
 Harris functional with IExCor=  402 diagonalized for initial guess.
 ExpMin= 1.43D-01 ExpMax= 2.52D+04 ExpMxC= 3.78D+03 IAcc=1 IRadAn=         1 AccDes= 0.00D+00
 HarFok:  IExCor=  402 AccDes= 0.00D+00 IRadAn=         1 IDoV= 1
 ScaDFX=  1.000000  1.000000  1.000000  1.000000
 FoFCou: FMM=F IPFlag=           0 FMFlag=      100000 FMFlg1=           0
         NFxFlg=           0 DoJE=T BraDBF=F KetDBF=T FulRan=T
         Omega=  0.000000  0.000000  1.000000  0.000000  0.000000 ICntrl=     500 IOpCl=  0
         NMat0=    1 NMatS0=    1 NMatT0=    0 NMatD0=    1 NMtDS0=    0 NMtDT0=    0
         I1Cent=           4 NGrid=           0.
 Petite list used in FoFCou.
 Requested convergence on RMS density matrix=1.00D-08 within 128 cycles.
 Requested convergence on MAX density matrix=1.00D-06.
 Requested convergence on             energy=1.00D-06.
 No special actions if energy rises.
 Keep R1 and R2 ints in memory in canonical form, NReq=9546684.
 Integral accuracy reduced to 1.0D-05 until final iterations.
 Initial convergence to 1.0D-05 achieved.  Increase integral accuracy.
 SCF Done:  E(UB3LYP) =  -1419.82723773     A.U. after   13 cycles
             Convg  =    0.8301D-08             -V/T =  2.0032
 <Sx>= 0.0000 <Sy>= 0.0000 <Sz>= 0.5000 <S**2>= 0.7550 S= 0.5025
 <L.S>= 0.000000000000E+00
 Annihilation of the first spin contaminant:
 S**2 before annihilation     0.7550,   after     0.7500
 Calling FoFJK, ICntrl=      2127 FMM=F ISym2X=1 I1Cent= 0 IOpClX= 1 NMat=1 NMatS=1 NMatT=0.
 ***** Axes restored to original set *****
 -------------------------------------------------------------------
 Center     Atomic                   Forces (Hartrees/Bohr)
 Number     Number              X              Y              Z
 -------------------------------------------------------------------
      1        6          -0.000182623   -0.000057937    0.000150891
      2        1          -0.000019150    0.000026620   -0.000042427
      3        1           0.000022167    0.000016899   -0.000035893
      4       17          -0.000046545    0.000095347    0.000022218
      5       17          -0.000068689   -0.000055789   -0.000062614
      6       17           0.000294839   -0.000025140   -0.000032175
 -------------------------------------------------------------------
 Cartesian Forces:  Max     0.000294839 RMS     0.000099028

 GradGradGradGradGradGradGradGradGradGradGradGradGradGradGradGradGradGrad
 Berny optimization.
 Internal  Forces:  Max     0.000324081 RMS     0.000126046
 Search for a saddle point.
 Step number   4 out of a maximum of   27
 All quantities printed in internal units (Hartrees-Bohrs-Radians)
 Swaping is turned off.
 Update second derivatives using D2CorX and points    1    2    3    4
 The second derivative matrix:
                          R1        R2        R3        R4        R5
           R1           0.39819
           R2           0.00139   0.02954
           R3           0.00222   0.00927   0.21706
           R4           0.00226   0.00931   0.03761   0.21709
           R5           0.00064   0.07930  -0.00194  -0.00185   0.10285
           A1           0.00156   0.00271   0.00107  -0.00218  -0.00440
           A2          -0.00002  -0.00031   0.00734  -0.01997   0.00024
           A3           0.00044  -0.00402  -0.01764   0.01491   0.00064
           A4          -0.00088   0.00148  -0.00296  -0.01385   0.00063
           A5          -0.00177   0.00410  -0.01332  -0.00620   0.00040
           A6           0.00077  -0.00089   0.02611   0.02783  -0.00090
           A7           0.00086   0.00127  -0.00335   0.00043   0.00185
           A8          -0.00092  -0.00212   0.00236   0.00344  -0.00468
           D1           0.00133   0.00298   0.00397  -0.02340  -0.00419
           D2          -0.00109  -0.00275   0.01766  -0.00265   0.00442
           D3           0.00055  -0.00753   0.01336   0.00099   0.00480
           D4           0.00164  -0.00479  -0.00430   0.00363   0.00039
                          A1        A2        A3        A4        A5
           A1           0.01493
           A2          -0.00946   0.04907
           A3          -0.01398  -0.01785   0.08676
           A4          -0.01046   0.00705   0.02451   0.03563
           A5          -0.01206   0.02684  -0.02941  -0.00887   0.06568
           A6           0.03343  -0.05633  -0.05033  -0.04826  -0.04273
           A7          -0.00006  -0.00105   0.00012   0.00282  -0.00204
           A8           0.00112  -0.00013   0.00175  -0.00132  -0.00352
           D1           0.00548   0.02297  -0.01288   0.01330  -0.00378
           D2          -0.00207   0.00600  -0.01806   0.00324  -0.00744
           D3          -0.00313   0.01569   0.00095  -0.00538  -0.01057
           D4          -0.00106   0.00969   0.01901  -0.00862  -0.00313
                          A6        A7        A8        D1        D2
           A6           0.16503
           A7          -0.00030   0.03109
           A8           0.00428  -0.00117   0.01286
           D1          -0.02297   0.00114  -0.00007   0.02828
           D2           0.01599   0.00119  -0.00003   0.00378   0.01785
           D3           0.00023  -0.00066   0.00043   0.00308   0.00945
           D4          -0.01576  -0.00185   0.00046  -0.00070  -0.00840
                          D3        D4
           D3           0.02313
           D4           0.01368   0.02207
 ITU=  0  0  0  0
     Eigenvalues ---   -0.02501   0.01231   0.02647   0.03029   0.05040
     Eigenvalues ---    0.05603   0.11832   0.15384   0.19600   0.20440
     Eigenvalues ---    0.29036   0.39833
 Eigenvectors required to have negative eigenvalues:
                          R2        R5        D3        D1        D2
   1                   -0.81823   0.52429  -0.13112   0.10086  -0.10079
                          A1        R4        R3        A3        A2
   1                    0.09013   0.04337   0.04308  -0.04249  -0.03659
 RFO step:  Lambda0=3.938809459D-07 Lambda=-1.63038192D-06.
 Linear search not attempted -- option 19 set.
 Iteration  1 RMS(Cart)=  0.00105971 RMS(Int)=  0.00000053
 Iteration  2 RMS(Cart)=  0.00000048 RMS(Int)=  0.00000035
 ClnCor:  largest displacement from symmetrization is 1.77D-04 for atom     5.
 Variable       Old X    -DE/DX   Delta X   Delta X   Delta X     New X
                                 (Linear)    (Quad)   (Total)
    R1        2.05761   0.00005   0.00000   0.00013   0.00013   2.05774
    R2        2.69817  -0.00032   0.00000   0.00133   0.00133   2.69950
    R3        3.28009   0.00004   0.00000  -0.00024  -0.00021   3.27988
    R4        3.28009   0.00004   0.00000  -0.00019  -0.00021   3.27988
    R5        2.77771  -0.00030   0.00000  -0.00415  -0.00415   2.77356
    A1        1.74291   0.00003   0.00000  -0.00106  -0.00106   1.74184
    A2        1.96985  -0.00008   0.00000   0.00025   0.00020   1.97005
    A3        1.96985  -0.00006   0.00000   0.00013   0.00020   1.97005
    A4        1.85187  -0.00007   0.00000  -0.00046  -0.00052   1.85135
    A5        1.85187  -0.00008   0.00000  -0.00054  -0.00052   1.85135
    A6        2.04242   0.00021   0.00000   0.00115   0.00117   2.04358
    A7        3.17599  -0.00002   0.00000  -0.00027  -0.00009   3.17590
    A8        3.02687   0.00002   0.00000   0.00011   0.00024   3.02711
    D1        1.89147  -0.00003   0.00000  -0.00138  -0.00144   1.89003
    D2       -1.89147   0.00003   0.00000   0.00148   0.00144  -1.89003
    D3        2.33009   0.00005   0.00000   0.00176   0.00179   2.33188
    D4       -2.06162   0.00002   0.00000   0.00028   0.00035  -2.06127
         Item               Value     Threshold  Converged?
 Maximum Force            0.000324     0.000450     YES
 RMS     Force            0.000126     0.000300     YES
 Maximum Displacement     0.003443     0.001800     NO 
 RMS     Displacement     0.001069     0.001200     YES
 Predicted change in Energy=-6.170331D-07
 GradGradGradGradGradGradGradGradGradGradGradGradGradGradGradGradGradGrad

                          Input orientation:                          
 ---------------------------------------------------------------------
 Center     Atomic      Atomic             Coordinates (Angstroms)
 Number     Number       Type             X           Y           Z
 ---------------------------------------------------------------------
      1          6           0       -1.796324    1.150995   -0.292698
      2          1           0       -1.822008    1.686690   -1.240377
      3          1           0       -3.186509    1.170521    0.035406
      4         17           0       -0.993565    2.040026    0.963343
      5         17           0       -1.368859   -0.521342   -0.474354
      6         17           0       -4.633018    1.250357    0.270766
 ---------------------------------------------------------------------
                    Distance matrix (angstroms):
                    1          2          3          4          5
     1  C    0.000000
     2  H    1.088910   0.000000
     3  H    1.428512   1.938019   0.000000
     4  Cl   1.735638   2.380660   2.534977   0.000000
     5  Cl   1.735638   2.380660   2.534977   2.961153   0.000000
     6  Cl   2.893820   3.221136   1.467704   3.787989   3.787989
                    6
     6  Cl   0.000000
 Stoichiometry    CH2Cl3(2)
 Framework group  CS[SG(CH2Cl),X(Cl2)]
 Deg. of freedom     8
 Full point group                 CS      NOp   2
 Largest Abelian subgroup         CS      NOp   2
 Largest concise Abelian subgroup CS      NOp   2
                         Standard orientation:                         
 ---------------------------------------------------------------------
 Center     Atomic      Atomic             Coordinates (Angstroms)
 Number     Number       Type             X           Y           Z
 ---------------------------------------------------------------------
      1          6           0        0.696127    0.024162    0.000000
      2          1           0        1.422579    0.835328    0.000000
      3          1           0       -0.514710    0.782135    0.000000
      4         17           0        0.696127   -0.881560    1.480576
      5         17           0        0.696127   -0.881560   -1.480576
      6         17           0       -1.691349    1.659447    0.000000
 ---------------------------------------------------------------------
 Rotational constants (GHZ):      3.1554240      1.7138903      1.1451216
 Standard basis: 6-31G(d) (6D, 7F)
 There are    48 symmetry adapted basis functions of A'  symmetry.
 There are    28 symmetry adapted basis functions of A"  symmetry.
 Integral buffers will be    131072 words long.
 Raffenetti 2 integral format.
 Two-electron integral symmetry is turned on.
    76 basis functions,   192 primitive gaussians,    76 cartesian basis functions
    30 alpha electrons       29 beta electrons
       nuclear repulsion energy       242.2303370371 Hartrees.
 NAtoms=    6 NActive=    6 NUniq=    5 SFac= 1.44D+00 NAtFMM=   60 NAOKFM=F Big=F
 One-electron integrals computed using PRISM.
 NBasis=    76 RedAO= T  NBF=    48    28
 NBsUse=    76 1.00D-06 NBFU=    48    28
 Initial guess read from the read-write file.
 B after Tr=     0.000000    0.000000    0.000000
         Rot=    1.000000    0.000000    0.000000    0.000000 Ang=   0.00 deg.
 Initial guess orbital symmetries:
 Alpha Orbitals:
       Occupied  (A") (A') (A') (A') (A") (A') (A') (A') (A") (A")
                 (A') (A") (A') (A') (A') (A") (A') (A") (A') (A')
                 (A') (A') (A") (A') (A") (A') (A") (A') (A") (A')
       Virtual   (A') (A") (A') (A') (A') (A") (A') (A") (A') (A')
                 (A') (A') (A") (A") (A') (A") (A') (A') (A") (A")
                 (A') (A') (A") (A") (A') (A") (A') (A") (A') (A')
                 (A") (A') (A') (A") (A') (A') (A') (A') (A") (A')
                 (A") (A') (A') (A') (A") (A')
 Beta  Orbitals:
       Occupied  (A") (A') (A') (A') (A") (A') (A') (A') (A") (A")
                 (A') (A") (A') (A') (A') (A") (A') (A") (A') (A')
                 (A') (A") (A') (A') (A") (A') (A") (A') (A")
       Virtual   (A') (A') (A") (A') (A') (A') (A") (A') (A") (A')
                 (A') (A') (A") (A') (A") (A') (A") (A') (A') (A")
                 (A") (A') (A') (A") (A") (A') (A") (A') (A") (A')
                 (A') (A") (A') (A') (A") (A') (A') (A') (A') (A")
                 (A') (A") (A') (A') (A") (A') (A')
 Initial guess <Sx>= 0.0000 <Sy>= 0.0000 <Sz>= 0.5000 <S**2>= 0.7550 S= 0.5025
 Requested convergence on RMS density matrix=1.00D-08 within 128 cycles.
 Requested convergence on MAX density matrix=1.00D-06.
 Requested convergence on             energy=1.00D-06.
 No special actions if energy rises.
 Keep R1 and R2 ints in memory in canonical form, NReq=9546684.
 SCF Done:  E(UB3LYP) =  -1419.82723832     A.U. after    9 cycles
             Convg  =    0.9213D-08             -V/T =  2.0032
 <Sx>= 0.0000 <Sy>= 0.0000 <Sz>= 0.5000 <S**2>= 0.7550 S= 0.5025
 <L.S>= 0.000000000000E+00
 Annihilation of the first spin contaminant:
 S**2 before annihilation     0.7550,   after     0.7500
 Calling FoFJK, ICntrl=      2127 FMM=F ISym2X=1 I1Cent= 0 IOpClX= 1 NMat=1 NMatS=1 NMatT=0.
 ***** Axes restored to original set *****
 -------------------------------------------------------------------
 Center     Atomic                   Forces (Hartrees/Bohr)
 Number     Number              X              Y              Z
 -------------------------------------------------------------------
      1        6          -0.000011318    0.000005920   -0.000007592
      2        1           0.000022593   -0.000004266    0.000001702
      3        1           0.000013508    0.000005135   -0.000012674
      4       17           0.000003727    0.000018815    0.000008794
      5       17          -0.000001601   -0.000017544   -0.000011614
      6       17          -0.000026909   -0.000008060    0.000021385
 -------------------------------------------------------------------
 Cartesian Forces:  Max     0.000026909 RMS     0.000013455

 GradGradGradGradGradGradGradGradGradGradGradGradGradGradGradGradGradGrad
 Berny optimization.
 Internal  Forces:  Max     0.000029534 RMS     0.000016370
 Search for a saddle point.
 Step number   5 out of a maximum of   27
 All quantities printed in internal units (Hartrees-Bohrs-Radians)
 Swaping is turned off.
 Update second derivatives using D2CorX and points    1    2    3    4    5
 The second derivative matrix:
                          R1        R2        R3        R4        R5
           R1           0.39809
           R2           0.00162   0.02819
           R3           0.00227   0.00879   0.21718
           R4           0.00229   0.00887   0.03772   0.21721
           R5           0.00025   0.07980   0.00085   0.00080   0.10748
           A1           0.00115   0.00345   0.00208  -0.00124   0.00019
           A2           0.00018  -0.00102   0.00715  -0.02014   0.00022
           A3           0.00065  -0.00485  -0.01779   0.01478   0.00132
           A4          -0.00097   0.00243  -0.00271  -0.01361  -0.00166
           A5          -0.00186   0.00503  -0.01308  -0.00597  -0.00185
           A6           0.00098  -0.00294   0.02554   0.02729   0.00401
           A7           0.00097   0.00131  -0.00336   0.00041   0.00001
           A8          -0.00118  -0.00211   0.00239   0.00347  -0.00038
           D1           0.00089   0.00442   0.00513  -0.02231  -0.00197
           D2          -0.00069  -0.00396   0.01648  -0.00376   0.00140
           D3           0.00095  -0.00881   0.01196  -0.00033   0.00115
           D4           0.00164  -0.00485  -0.00452   0.00342  -0.00024
                          A1        A2        A3        A4        A5
           A1           0.01629
           A2          -0.00911   0.04879
           A3          -0.01346  -0.01812   0.08653
           A4          -0.01103   0.00732   0.02481   0.03488
           A5          -0.01258   0.02708  -0.02916  -0.00957   0.06504
           A6           0.03452  -0.05685  -0.05090  -0.04667  -0.04126
           A7          -0.00037  -0.00102   0.00019   0.00252  -0.00236
           A8           0.00181  -0.00018   0.00159  -0.00065  -0.00280
           D1           0.00631   0.02351  -0.01215   0.01211  -0.00488
           D2          -0.00319   0.00552  -0.01875   0.00434  -0.00641
           D3          -0.00462   0.01518   0.00015  -0.00405  -0.00931
           D4          -0.00144   0.00966   0.01890  -0.00839  -0.00290
                          A6        A7        A8        D1        D2
           A6           0.16167
           A7           0.00042   0.03101
           A8           0.00264  -0.00099   0.01245
           D1          -0.02055   0.00058   0.00119   0.02807
           D2           0.01375   0.00173  -0.00123   0.00364   0.01834
           D3          -0.00252   0.00001  -0.00105   0.00280   0.01017
           D4          -0.01627  -0.00172   0.00018  -0.00084  -0.00817
                          D3        D4
           D3           0.02412
           D4           0.01396   0.02213
 ITU=  0  0  0  0  0
     Eigenvalues ---   -0.02492   0.01197   0.02765   0.03130   0.04935
     Eigenvalues ---    0.05571   0.11821   0.15682   0.19598   0.20336
     Eigenvalues ---    0.28808   0.39823
 Eigenvectors required to have negative eigenvalues:
                          R2        R5        D3        D1        D2
   1                   -0.83165   0.50633  -0.13135   0.08865  -0.08496
                          A1        A8        D4        A3        R4
   1                    0.07122  -0.05211  -0.04639  -0.04164   0.03874
[...]
 
              Baa    -0.0747    -6.119    -2.183    -2.041  0.5786  0.8156  0.0000
     3 H(2)   Bbb    -0.0743    -6.089    -2.173    -2.031  0.0000  0.0000  1.0000
              Bcc     0.1491    12.208     4.356     4.072  0.8156 -0.5786  0.0000
 
              Baa    -0.4924   -25.771    -9.196    -8.596 -0.3526 -0.3835  0.8536
     4 Cl(35) Bbb    -0.3617   -18.932    -6.755    -6.315  0.2844  0.8251  0.4882
              Bcc     0.8541    44.703    15.951    14.911  0.8915 -0.4148  0.1818
 
              Baa    -0.4924   -25.771    -9.196    -8.596  0.3526  0.3835  0.8536
     5 Cl(35) Bbb    -0.3617   -18.932    -6.755    -6.315  0.2844  0.8251 -0.4882
              Bcc     0.8541    44.703    15.951    14.911  0.8915 -0.4148 -0.1818
 
              Baa    -1.1214   -58.693   -20.943   -19.578  0.5633  0.8263  0.0000
     6 Cl(35) Bbb    -1.1212   -58.682   -20.939   -19.574  0.0000  0.0000  1.0000
              Bcc     2.2426   117.375    41.882    39.152  0.8263 -0.5633  0.0000
 

 ---------------------------------------------------------------------------------

 Calling FoFJK, ICntrl=    100127 FMM=F ISym2X=1 I1Cent= 0 IOpClX= 1 NMat=1 NMatS=1 NMatT=0.
 Full mass-weighted force constant matrix:
 Low frequencies --- -757.3328   -4.7668    0.0070    0.0071    0.0080    1.0546
 Low frequencies ---   10.7432   85.7688  149.9669
 ******    1 imaginary frequencies (negative Signs) ****** 
 Harmonic frequencies (cm**-1), IR intensities (KM/Mole), Raman scattering
 activities (A**4/AMU), depolarization ratios for plane and unpolarized
 incident light, reduced masses (AMU), force constants (mDyne/A),
 and normal coordinates:
                     1                      2                      3
                    A'                     A"                     A'
 Frequencies --  -757.3327                85.7568               149.9622
 Red. masses --     2.4439                23.4781                 8.8355
 Frc consts  --     0.8259                 0.1017                 0.1171
 IR Inten    --     4.6131                 1.7092                 1.6395
  Atom  AN      X      Y      Z        X      Y      Z        X      Y      Z
     1   6    -0.17   0.12   0.00     0.00   0.00   0.32    -0.33  -0.05   0.00
     2   1     0.10  -0.11   0.00     0.00   0.00   0.34    -0.62   0.21   0.00
     3   1     0.80  -0.55   0.00     0.00   0.00   0.40    -0.46  -0.26   0.00
     4  17     0.00   0.00   0.00     0.33  -0.31   0.14     0.17  -0.12  -0.03
     5  17     0.00   0.00   0.00    -0.33   0.31   0.14     0.17  -0.12   0.03
     6  17     0.01   0.00   0.00     0.00   0.00  -0.42    -0.17   0.27   0.00
                     4                      5                      6
                    A'                     A'                     A"
 Frequencies --   294.2044               396.2160               672.4661
 Red. masses --     9.4593                 3.8015                 2.1333
 Frc consts  --     0.4824                 0.3516                 0.5684
 IR Inten    --     2.8817                 6.4648                16.2421
  Atom  AN      X      Y      Z        X      Y      Z        X      Y      Z
     1   6    -0.24  -0.28   0.00     0.21  -0.04   0.00     0.00   0.00   0.04
     2   1    -0.52  -0.04   0.00     0.61  -0.40   0.00     0.00   0.00  -0.04
     3   1    -0.40  -0.49   0.00     0.49   0.35   0.00     0.00   0.00   1.00
     4  17     0.01   0.08   0.29     0.01  -0.04   0.12    -0.01   0.02  -0.03
     5  17     0.01   0.08  -0.29     0.01  -0.04  -0.12     0.01  -0.02  -0.03
     6  17     0.10  -0.04   0.00    -0.14   0.08   0.00     0.00   0.00  -0.01
                     7                      8                      9
                    A'                     A'                     A"
 Frequencies --   704.7508               767.5210               841.9804
 Red. masses --     2.7525                 6.0147                 7.0397
 Frc consts  --     0.8055                 2.0876                 2.9404
 IR Inten    --     5.6115                63.5318               189.3392
  Atom  AN      X      Y      Z        X      Y      Z        X      Y      Z
     1   6    -0.25  -0.05   0.00    -0.02   0.55   0.00     0.00   0.00   0.65
     2   1    -0.17  -0.13   0.00    -0.13   0.67   0.00     0.00   0.00   0.67
     3   1     0.32   0.88   0.00    -0.32   0.28   0.00     0.00   0.00  -0.29
     4  17     0.02   0.00   0.00    -0.01  -0.10   0.10     0.01   0.07  -0.11
     5  17     0.02   0.00   0.00    -0.01  -0.10  -0.10    -0.01  -0.07  -0.11
     6  17     0.03  -0.04   0.00     0.05  -0.03   0.00     0.00   0.00   0.00
                    10                     11                     12
                    A'                     A"                     A'
 Frequencies --  1031.2673              1268.4158              3182.9476
 Red. masses --     1.2423                 1.1036                 1.0873
 Frc consts  --     0.7784                 1.0462                 6.4900
 IR Inten    --    14.7718                28.1520                 9.3447
  Atom  AN      X      Y      Z        X      Y      Z        X      Y      Z
     1   6    -0.09   0.06   0.00     0.00   0.00  -0.09    -0.06  -0.06   0.00
     2   1     0.69  -0.65   0.00     0.00   0.00   1.00     0.67   0.74   0.00
     3   1    -0.29  -0.04   0.00     0.00   0.00   0.03     0.00   0.00   0.00
     4  17     0.01   0.00   0.00     0.01   0.01   0.00     0.00   0.00   0.00
     5  17     0.01   0.00   0.00    -0.01  -0.01   0.00     0.00   0.00   0.00
     6  17     0.01  -0.01   0.00     0.00   0.00   0.00     0.00   0.00   0.00

 -------------------
 - Thermochemistry -
 -------------------
 Temperature   298.150 Kelvin.  Pressure   1.00000 Atm.
 Atom     1 has atomic number  6 and mass  12.00000
 Atom     2 has atomic number  1 and mass   1.00783
 Atom     3 has atomic number  1 and mass   2.01410
 Atom     4 has atomic number 17 and mass  34.96885
 Atom     5 has atomic number 17 and mass  34.96885
 Atom     6 has atomic number 17 and mass  34.96885
 Molecular mass:   119.92849 amu.
 Principal axes and moments of inertia in atomic units:
                           1         2         3
     Eigenvalues --   571.948881053.008571576.02578
           X           -0.69404   0.00000   0.71993
           Y            0.71993   0.00000   0.69404
           Z            0.00000   1.00000   0.00000
 This molecule is an asymmetric top.
 Rotational symmetry number  1.
 Warning -- assumption of classical behavior for rotation
           may cause significant error
 Rotational temperatures (Kelvin)      0.15144     0.08225     0.05496
 Rotational constants (GHZ):           3.15542     1.71389     1.14512
    1 imaginary frequencies ignored.
 Zero-point vibrational energy      56197.5 (Joules/Mol)
                                   13.43152 (Kcal/Mol)
 Warning -- explicit consideration of   4 degrees of freedom as
           vibrations may cause significant error
 Vibrational temperatures:    123.38   215.76   423.29   570.07   967.53
          (Kelvin)           1013.98  1104.29  1211.42  1483.76  1824.97
                             4579.55
 
 Zero-point correction=                           0.021404 (Hartree/Particle)
 Thermal correction to Energy=                    0.026819
 Thermal correction to Enthalpy=                  0.027763
 Thermal correction to Gibbs Free Energy=        -0.010247
 Sum of electronic and zero-point Energies=          -1419.805834
 Sum of electronic and thermal Energies=             -1419.800419
 Sum of electronic and thermal Enthalpies=           -1419.799475
 Sum of electronic and thermal Free Energies=        -1419.837485
 
                     E (Thermal)             CV                S
                      KCal/Mol        Cal/Mol-Kelvin    Cal/Mol-Kelvin
 Total                   16.829             16.488             79.998
 Electronic               0.000              0.000              1.377
 Translational            0.889              2.981             40.260
 Rotational               0.889              2.981             28.342
 Vibrational             15.052             10.526             10.019
 Vibration     1          0.601              1.959              3.755
 Vibration     2          0.618              1.903              2.673
 Vibration     3          0.689              1.685              1.450
 Vibration     4          0.763              1.478              0.977
                       Q            Log10(Q)             Ln(Q)
 Total Bot       0.516537D+05          4.713102         10.852318
 Total V=0       0.361798D+15         14.558466         33.522107
 Vib (Bot)       0.143453D-08         -8.843290        -20.362427
 Vib (Bot)    1  0.239927D+01          0.380079          0.875164
 Vib (Bot)    2  0.135215D+01          0.131024          0.301695
 Vib (Bot)    3  0.648503D+00         -0.188088         -0.433088
 Vib (Bot)    4  0.451089D+00         -0.345738         -0.796091
 Vib (V=0)       0.100479D+02          1.002075          2.307363
 Vib (V=0)    1  0.295081D+01          0.469942          1.082081
 Vib (V=0)    2  0.194163D+01          0.288167          0.663529
 Vib (V=0)    3  0.131888D+01          0.120204          0.276779
 Vib (V=0)    4  0.117341D+01          0.069450          0.159914
 Electronic      0.200000D+01          0.301030          0.693147
 Translational   0.516225D+08          7.712839         17.759467
 Rotational      0.348757D+06          5.542523         12.762130
 ***** Axes restored to original set *****
 -------------------------------------------------------------------
 Center     Atomic                   Forces (Hartrees/Bohr)
 Number     Number              X              Y              Z
 -------------------------------------------------------------------
      1        6          -0.000011341    0.000005933   -0.000007609
      2        1           0.000022599   -0.000004270    0.000001708
      3        1           0.000013511    0.000005135   -0.000012674
      4       17           0.000003734    0.000018817    0.000008801
      5       17          -0.000001595   -0.000017552   -0.000011613
      6       17          -0.000026908   -0.000008062    0.000021388
 -------------------------------------------------------------------
 Cartesian Forces:  Max     0.000026908 RMS     0.000013459

 GradGradGradGradGradGradGradGradGradGradGradGradGradGradGradGradGradGrad
 Berny optimization.
 Internal  Forces:  Max     0.000029533 RMS     0.000016370
 Search for a saddle point.
 Step number   1 out of a maximum of    2
 All quantities printed in internal units (Hartrees-Bohrs-Radians)
 Swaping is turned off.
 Second derivative matrix not updated -- analytic derivatives used.
 The second derivative matrix:
                          R1        R2        R3        R4        R5
           R1           0.35660
           R2           0.00211   0.02981
           R3           0.00279   0.00984   0.23577
           R4           0.00277   0.00987   0.03253   0.23579
           R5          -0.00026   0.08016  -0.00131  -0.00130   0.10781
           A1           0.00118   0.00317  -0.00241  -0.00508  -0.00129
           A2          -0.00009  -0.00018   0.01169  -0.02002   0.00020
           A3           0.00088  -0.00383  -0.01815   0.01605   0.00091
           A4          -0.00115   0.00231   0.00230  -0.01083  -0.00018
           A5          -0.00232   0.00465  -0.01053   0.00038  -0.00050
           A6           0.00108  -0.00382   0.01397   0.01522   0.00040
           A7           0.00074   0.00014  -0.00336   0.00146  -0.00047
           A8          -0.00113   0.00008   0.00061   0.00205   0.00073
           D1           0.00072   0.00489   0.00359  -0.02067  -0.00152
           D2          -0.00053  -0.00453   0.01655  -0.00136   0.00138
           D3           0.00199  -0.00860   0.01297   0.00302   0.00174
           D4           0.00252  -0.00407  -0.00358   0.00438   0.00036
                          A1        A2        A3        A4        A5
           A1           0.01120
           A2          -0.00782   0.06327
           A3          -0.01163  -0.02701   0.08664
           A4          -0.00582   0.00673   0.02242   0.03286
           A5          -0.00938   0.02605  -0.01792  -0.01491   0.05533
           A6           0.02180  -0.05319  -0.05067  -0.03669  -0.03179
           A7           0.00008  -0.00083   0.00026   0.00223  -0.00272
           A8           0.00005  -0.00001   0.00053   0.00096  -0.00119
           D1           0.00653   0.02249  -0.01350   0.01389  -0.00750
           D2          -0.00292   0.00708  -0.01507   0.00494  -0.01093
           D3          -0.00170   0.01130  -0.00009  -0.00396  -0.01347
           D4           0.00122   0.00422   0.01498  -0.00890  -0.00254
                          A6        A7        A8        D1        D2
           A6           0.13341
           A7           0.00085   0.03184
           A8          -0.00035   0.00068   0.01188
           D1          -0.01780   0.00093   0.00058   0.02511
           D2           0.01404   0.00126   0.00034   0.00238   0.01599
           D3           0.00407  -0.00010   0.00020   0.00088   0.00930
           D4          -0.00998  -0.00136  -0.00014  -0.00150  -0.00669
                          D3        D4
           D3           0.02179
           D4           0.01249   0.01918
 ITU=  0
     Eigenvalues ---   -0.02415   0.01179   0.02518   0.03115   0.04500
     Eigenvalues ---    0.06281   0.11797   0.15781   0.19351   0.21876
     Eigenvalues ---    0.27754   0.35691
 Eigenvectors required to have negative eigenvalues:
                          R2        R5        D3        D1        D2
   1                   -0.82815   0.50945  -0.13483   0.09670  -0.09528
                          A1        A3        R4        R3        D4
   1                    0.08253  -0.04292   0.04285   0.04164  -0.03955
 Angle between quadratic step and forces=  52.66 degrees.
 Linear search not attempted -- option 19 set.
 Iteration  1 RMS(Cart)=  0.00079063 RMS(Int)=  0.00000072
 Iteration  2 RMS(Cart)=  0.00000087 RMS(Int)=  0.00000000
 ClnCor:  largest displacement from symmetrization is 1.17D-06 for atom     5.
 Variable       Old X    -DE/DX   Delta X   Delta X   Delta X     New X
                                 (Linear)    (Quad)   (Total)
    R1        2.05774   0.00000   0.00000  -0.00001  -0.00001   2.05773
    R2        2.69950   0.00002   0.00000   0.00043   0.00043   2.69993
    R3        3.27988   0.00002   0.00000   0.00006   0.00006   3.27994
    R4        3.27988   0.00002   0.00000   0.00006   0.00006   3.27994
    R5        2.77356   0.00003   0.00000  -0.00004  -0.00004   2.77352
    A1        1.74184   0.00002   0.00000   0.00048   0.00048   1.74232
    A2        1.97005  -0.00001   0.00000  -0.00010  -0.00010   1.96996
    A3        1.97005  -0.00001   0.00000  -0.00010  -0.00010   1.96996
    A4        1.85135  -0.00001   0.00000  -0.00017  -0.00017   1.85118
    A5        1.85135  -0.00001   0.00000  -0.00017  -0.00017   1.85118
    A6        2.04358   0.00003   0.00000   0.00010   0.00010   2.04369
    A7        3.17590  -0.00002   0.00000  -0.00057  -0.00057   3.17533
    A8        3.02711   0.00003   0.00000   0.00221   0.00221   3.02932
    D1        1.89003   0.00001   0.00000   0.00043   0.00043   1.89046
    D2       -1.89003  -0.00001   0.00000  -0.00043  -0.00043  -1.89046
    D3        2.33188   0.00000   0.00000  -0.00015  -0.00015   2.33173
    D4       -2.06127   0.00000   0.00000   0.00028   0.00028  -2.06099
         Item               Value     Threshold  Converged?
 Maximum Force            0.000030     0.000450     YES
 RMS     Force            0.000016     0.000300     YES
 Maximum Displacement     0.001842     0.001800     NO 
 RMS     Displacement     0.000791     0.001200     YES
 Predicted change in Energy=-5.092656D-08
 GradGradGradGradGradGradGradGradGradGradGradGradGradGradGradGradGradGrad

 1\1\GINC-STUDENT-LENOVO-S510\Freq\UB3LYP\6-31G(d)\C1H2Cl3(2)\STUDENT\2
 2-Feb-2021\0\\#N Geom=AllCheck Guess=TCheck SCRF=Check GenChk UB3LYP/6
 -31G(d) Freq\\Title Card Required\\0,2\C,-1.796324311,1.1509948014,-0.
 2926980918\H,-1.8220080584,1.6866902029,-1.2403767247\H,-3.1865092435,
 1.1705208537,0.0354061159\Cl,-0.993564775,2.0400258167,0.9633427958\Cl
 ,-1.3688585026,-0.5213424695,-0.4743537143\Cl,-4.6330181435,1.25035703
 81,0.2707658346\\Version=EM64L-G09RevC.01\State=2-A'\HF=-1419.8272383\
 S2=0.755023\S2-1=0.\S2A=0.750015\RMSD=2.657e-09\RMSF=1.346e-05\ZeroPoi
 nt=0.0214045\Thermal=0.026819\Dipole=1.0780959,0.1077238,-0.4733425\Di
 poleDeriv=0.8732699,0.0161387,0.1513511,-0.0858519,1.2599205,0.5627633
 ,0.3330554,0.5361398,0.5211055,-0.02727,-0.0050794,0.0038913,0.0309316
 ,-0.0289538,-0.040278,-0.0602652,-0.0308778,0.0237129,0.0802051,-0.004
 2241,0.0056571,0.0111226,0.0847982,-0.0238385,-0.0216843,-0.0198324,0.
 1140408,-0.3122969,-0.2310394,-0.2156635,-0.2135567,-0.3430838,-0.2319
 777,-0.3065832,-0.3636324,-0.3158817,-0.1733467,0.1991346,0.0509511,0.
 2500587,-0.7153269,-0.2692161,0.0199988,-0.1197046,-0.0825888,-0.44056
 14,0.0250696,0.0038129,0.0072957,-0.2573543,0.002547,0.0354784,-0.0020
 927,-0.2603886\Polar=70.8408116,-2.9832498,47.8194347,0.7573194,10.687
 8238,34.1425243\PG=CS [SG(C1H2Cl1),X(Cl2)]\NImag=1\\0.11371593,-0.0062
 9227,0.35093046,0.05944376,-0.09178087,0.44648957,-0.02479557,-0.00530
 428,0.00570886,0.03209906,0.00343916,-0.11341770,0.13145638,-0.0009068
 5,0.12945321,-0.00986826,0.13373875,-0.27481730,0.00818655,-0.12836090
 ,0.28381928,0.08223679,-0.00638504,-0.01395878,-0.01157530,0.00051946,
 0.00251648,-0.02080803,-0.00659492,-0.01544617,0.00284603,-0.00497943,
 0.00082475,0.00269928,0.00229821,0.03309426,-0.01358486,0.00279124,-0.
 01624163,0.01231318,0.00126386,-0.00385561,0.01020114,0.00093587,0.029
 62609,-0.05502000,-0.02708032,-0.06298166,-0.00118956,-0.00574843,-0.0
 0299228,-0.01365346,-0.00645861,-0.01003263,0.06195927,-0.02903148,-0.
 05926603,-0.05334565,-0.00034311,0.00454051,0.00110826,-0.00607265,-0.
 00130428,-0.00374143,0.04466701,0.08444036,-0.04855994,-0.03412115,-0.
 11887093,-0.01990895,-0.01977454,-0.01414193,-0.00551557,-0.00216173,-
 0.00257258,0.07388761,0.07771347,0.13773363,-0.03335748,0.04253536,-0.
 00569655,0.00240662,0.00292162,0.00255692,-0.00853995,0.01248693,0.001
 63444,0.00645130,-0.00990614,-0.00057522,0.03182163,0.03381919,-0.1642
 3217,0.01201832,0.01170363,-0.02157900,-0.00889317,0.00868329,-0.00948
 142,-0.00128153,-0.00520311,-0.02882419,-0.02195777,-0.04804808,0.2227
 0251,-0.00111360,-0.00999076,-0.03556732,-0.00580225,0.01569306,0.0083
 8139,0.00320624,-0.00375338,0.00049105,0.00202157,-0.02225141,-0.00314
 614,0.00204880,0.02020065,0.02960913,-0.08277966,0.00252656,0.01748437
 ,0.00305475,-0.00022496,-0.00039941,-0.02766005,0.00324782,-0.00053127
 ,0.00145246,0.00068636,0.00067207,0.00121788,-0.00095491,-0.00036076,0
 .10471463,0.00466032,0.00143161,-0.00119421,-0.00016996,0.00017823,-0.
 00029222,0.00095673,-0.00768714,0.00003199,-0.00017653,0.00041363,0.00
 030172,0.00001032,0.00141428,0.00010184,-0.00528087,0.00424939,0.01368
 291,-0.00063721,-0.00099238,-0.00049740,-0.00027786,0.00061418,0.00355
 048,-0.00056607,-0.00744732,0.00009740,0.00051677,0.00099795,0.0000315
 9,-0.00008649,0.00023189,-0.01686499,0.00105087,0.00659568\\0.00001134
 ,-0.00000593,0.00000761,-0.00002260,0.00000427,-0.00000171,-0.00001351
 ,-0.00000513,0.00001267,-0.00000373,-0.00001882,-0.00000880,0.00000159
 ,0.00001755,0.00001161,0.00002691,0.00000806,-0.00002139\\\@


      LET US REMEMBER, PLEASE, THAT THE SEARCH FOR THE CONSTITUTION
      OF THE WORLD IS ONE OF THE GREATEST AND NOBLEST PROBLEMS PRESENTED 
      BY NATURE.

                                                  -- GALILEO
 Job cpu time:  0 days  0 hours  0 minutes 18.4 seconds.
 File lengths (MBytes):  RWF=     15 Int=      0 D2E=      0 Chk=      2 Scr=      1
 Normal termination of Gaussian 09 at Mon Feb 22 16:16:00 2021.
