 Entering Gaussian System, Link 0=g09
 Input=buta.com
 Output=buta.log
 Initial command:
 /home/student/g09/l1.exe /home/student/Aniruddha_1811022/Lab_3/Gau-6531.inp -scrdir=/home/student/Aniruddha_1811022/Lab_3/
 Entering Link 1 = /home/student/g09/l1.exe PID=      6533.
  
 Copyright (c) 1988,1990,1992,1993,1995,1998,2003,2009,2011,
            Gaussian, Inc.  All Rights Reserved.
  
 This is part of the Gaussian(R) 09 program.  It is based on
 the Gaussian(R) 03 system (copyright 2003, Gaussian, Inc.),
 the Gaussian(R) 98 system (copyright 1998, Gaussian, Inc.),
 the Gaussian(R) 94 system (copyright 1995, Gaussian, Inc.),
 the Gaussian 92(TM) system (copyright 1992, Gaussian, Inc.),
 the Gaussian 90(TM) system (copyright 1990, Gaussian, Inc.),
 the Gaussian 88(TM) system (copyright 1988, Gaussian, Inc.),
 the Gaussian 86(TM) system (copyright 1986, Carnegie Mellon
 University), and the Gaussian 82(TM) system (copyright 1983,
 Carnegie Mellon University). Gaussian is a federally registered
 trademark of Gaussian, Inc.
  
 This software contains proprietary and confidential information,
 including trade secrets, belonging to Gaussian, Inc.
  
 This software is provided under written license and may be
 used, copied, transmitted, or stored only in accord with that
 written license.
  
 The following legend is applicable only to US Government
 contracts under FAR:
  
                    RESTRICTED RIGHTS LEGEND
  
 Use, reproduction and disclosure by the US Government is
 subject to restrictions as set forth in subparagraphs (a)
 and (c) of the Commercial Computer Software - Restricted
 Rights clause in FAR 52.227-19.
  
 Gaussian, Inc.
 340 Quinnipiac St., Bldg. 40, Wallingford CT 06492
  
  
 ---------------------------------------------------------------
 Warning -- This program may not be used in any manner that
 competes with the business of Gaussian, Inc. or will provide
 assistance to any competitor of Gaussian, Inc.  The licensee
 of this program is prohibited from giving any competitor of
 Gaussian, Inc. access to this program.  By using this program,
 the user acknowledges that Gaussian, Inc. is engaged in the
 business of creating and licensing software in the field of
 computational chemistry and represents and warrants to the
 licensee that it is not a competitor of Gaussian, Inc. and that
 it will not use this program in any manner prohibited above.
 ---------------------------------------------------------------
  

 Cite this work as:
 Gaussian 09, Revision C.01,
 M. J. Frisch, G. W. Trucks, H. B. Schlegel, G. E. Scuseria, 
 M. A. Robb, J. R. Cheeseman, G. Scalmani, V. Barone, B. Mennucci, 
 G. A. Petersson, H. Nakatsuji, M. Caricato, X. Li, H. P. Hratchian, 
 A. F. Izmaylov, J. Bloino, G. Zheng, J. L. Sonnenberg, M. Hada, 
 M. Ehara, K. Toyota, R. Fukuda, J. Hasegawa, M. Ishida, T. Nakajima, 
 Y. Honda, O. Kitao, H. Nakai, T. Vreven, J. A. Montgomery, Jr., 
 J. E. Peralta, F. Ogliaro, M. Bearpark, J. J. Heyd, E. Brothers, 
 K. N. Kudin, V. N. Staroverov, T. Keith, R. Kobayashi, J. Normand, 
 K. Raghavachari, A. Rendell, J. C. Burant, S. S. Iyengar, J. Tomasi, 
 M. Cossi, N. Rega, J. M. Millam, M. Klene, J. E. Knox, J. B. Cross, 
 V. Bakken, C. Adamo, J. Jaramillo, R. Gomperts, R. E. Stratmann, 
 O. Yazyev, A. J. Austin, R. Cammi, C. Pomelli, J. W. Ochterski, 
 R. L. Martin, K. Morokuma, V. G. Zakrzewski, G. A. Voth, 
 P. Salvador, J. J. Dannenberg, S. Dapprich, A. D. Daniels, 
 O. Farkas, J. B. Foresman, J. V. Ortiz, J. Cioslowski, 
 and D. J. Fox, Gaussian, Inc., Wallingford CT, 2010.
 
 ******************************************
 Gaussian 09:  EM64L-G09RevC.01 23-Sep-2011
                 2-Mar-2021 
 ******************************************
 %chk=buta.chk
 --------------------------------------------------
 # b3lyp/6-31g* geom=connectivity opt freq pop=full
 --------------------------------------------------
 1/14=-1,18=20,19=15,26=3,38=1,57=2/1,3;
 2/9=110,12=2,17=6,18=5,40=1/2;
 3/5=1,6=6,7=1,11=2,16=1,25=1,30=1,71=1,74=-5/1,2,3;
 4//1;
 5/5=2,38=5/2;
 6/7=3,28=1/1;
 7//1,2,3,16;
 1/14=-1,18=20,19=15/3(2);
 2/9=110/2;
 99//99;
 2/9=110/2;
 3/5=1,6=6,7=1,11=2,16=1,25=1,30=1,71=1,74=-5/1,2,3;
 4/5=5,16=3/1;
 5/5=2,38=5/2;
 7//1,2,3,16;
 1/14=-1,18=20,19=15/3(-5);
 2/9=110/2;
 6/7=3,19=2,28=1/1;
 99/9=1/99;
 -------------------
 Title Card Required
 -------------------
 Charge =  0 Multiplicity = 1
 Symbolic Z-Matrix:
 C                    -0.12923  -1.86103   0. 
 H                     0.4825   -2.73848   0. 
 H                    -1.19423  -1.95472   0. 
 C                     0.44022  -0.63144   0. 
 H                     1.50522  -0.53774   0. 
 C                    -0.44022   0.63144   0. 
 H                    -1.50522   0.53774   0. 
 C                     0.12923   1.86103   0. 
 H                    -0.4825    2.73848   0. 
 H                     1.19423   1.95472   0. 
 

 GradGradGradGradGradGradGradGradGradGradGradGradGradGradGradGradGradGrad
 Berny optimization.
 Initialization pass.
                           ----------------------------
                           !    Initial Parameters    !
                           ! (Angstroms and Degrees)  !
 --------------------------                            --------------------------
 ! Name  Definition              Value          Derivative Info.                !
 --------------------------------------------------------------------------------
 ! R1    R(1,2)                  1.0696         estimate D2E/DX2                !
 ! R2    R(1,3)                  1.0691         estimate D2E/DX2                !
 ! R3    R(1,4)                  1.3551         estimate D2E/DX2                !
 ! R4    R(4,5)                  1.0691         estimate D2E/DX2                !
 ! R5    R(4,6)                  1.5395         estimate D2E/DX2                !
 ! R6    R(6,7)                  1.0691         estimate D2E/DX2                !
 ! R7    R(6,8)                  1.3551         estimate D2E/DX2                !
 ! R8    R(8,9)                  1.0696         estimate D2E/DX2                !
 ! R9    R(8,10)                 1.0691         estimate D2E/DX2                !
 ! A1    A(2,1,3)              119.8552         estimate D2E/DX2                !
 ! A2    A(2,1,4)              120.2671         estimate D2E/DX2                !
 ! A3    A(3,1,4)              119.8777         estimate D2E/DX2                !
 ! A4    A(1,4,5)              119.8777         estimate D2E/DX2                !
 ! A5    A(1,4,6)              120.267          estimate D2E/DX2                !
 ! A6    A(5,4,6)              119.8553         estimate D2E/DX2                !
 ! A7    A(4,6,7)              119.8553         estimate D2E/DX2                !
 ! A8    A(4,6,8)              120.267          estimate D2E/DX2                !
 ! A9    A(7,6,8)              119.8777         estimate D2E/DX2                !
 ! A10   A(6,8,9)              120.2671         estimate D2E/DX2                !
 ! A11   A(6,8,10)             119.8777         estimate D2E/DX2                !
 ! A12   A(9,8,10)             119.8552         estimate D2E/DX2                !
 ! D1    D(2,1,4,5)              0.0            estimate D2E/DX2                !
 ! D2    D(2,1,4,6)            180.0            estimate D2E/DX2                !
 ! D3    D(3,1,4,5)            180.0            estimate D2E/DX2                !
 ! D4    D(3,1,4,6)              0.0            estimate D2E/DX2                !
 ! D5    D(1,4,6,7)              0.0            estimate D2E/DX2                !
 ! D6    D(1,4,6,8)            180.0            estimate D2E/DX2                !
 ! D7    D(5,4,6,7)            180.0            estimate D2E/DX2                !
 ! D8    D(5,4,6,8)              0.0            estimate D2E/DX2                !
 ! D9    D(4,6,8,9)            180.0            estimate D2E/DX2                !
 ! D10   D(4,6,8,10)             0.0            estimate D2E/DX2                !
 ! D11   D(7,6,8,9)              0.0            estimate D2E/DX2                !
 ! D12   D(7,6,8,10)           180.0            estimate D2E/DX2                !
 --------------------------------------------------------------------------------
 Trust Radius=3.00D-01 FncErr=1.00D-07 GrdErr=1.00D-06
 Number of steps in this run=     43 maximum allowed number of steps=    100.
 GradGradGradGradGradGradGradGradGradGradGradGradGradGradGradGradGradGrad

                          Input orientation:                          
 ---------------------------------------------------------------------
 Center     Atomic      Atomic             Coordinates (Angstroms)
 Number     Number       Type             X           Y           Z
 ---------------------------------------------------------------------
      1          6           0       -0.129231   -1.861028    0.000000
      2          1           0        0.482499   -2.738480    0.000000
      3          1           0       -1.194228   -1.954723    0.000000
      4          6           0        0.440220   -0.631439    0.000000
      5          1           0        1.505216   -0.537744    0.000000
      6          6           0       -0.440220    0.631439    0.000000
      7          1           0       -1.505216    0.537744    0.000000
      8          6           0        0.129231    1.861028    0.000000
      9          1           0       -0.482499    2.738480    0.000000
     10          1           0        1.194228    1.954723    0.000000
 ---------------------------------------------------------------------
                    Distance matrix (angstroms):
                    1          2          3          4          5
     1  C    0.000000
     2  H    1.069642   0.000000
     3  H    1.069110   1.850861   0.000000
     4  C    1.355052   2.107465   2.102974   0.000000
     5  H    2.102974   2.426765   3.048742   1.069110   0.000000
     6  C    2.511793   3.493961   2.693837   1.539491   2.269738
     7  H    2.765401   3.832056   2.511793   2.269738   3.196777
     8  C    3.731020   4.613055   4.038750   2.511793   2.765401
     9  H    4.613055   5.561323   4.746863   3.493961   3.832056
    10  H    4.038750   4.746863   4.581319   2.693837   2.511793
                    6          7          8          9         10
     6  C    0.000000
     7  H    1.069110   0.000000
     8  C    1.355052   2.102974   0.000000
     9  H    2.107465   2.426765   1.069642   0.000000
    10  H    2.102974   3.048742   1.069110   1.850861   0.000000
 Stoichiometry    C4H6
 Framework group  C2H[SGH(C4H6)]
 Deg. of freedom     9
 Full point group                 C2H     NOp   4
 Largest Abelian subgroup         C2H     NOp   4
 Largest concise Abelian subgroup C2      NOp   2
                         Standard orientation:                         
 ---------------------------------------------------------------------
 Center     Atomic      Atomic             Coordinates (Angstroms)
 Number     Number       Type             X           Y           Z
 ---------------------------------------------------------------------
      1          6           0        0.664818    1.743027    0.000000
      2          1           0        1.588652    2.282161    0.000000
      3          1           0       -0.262198    2.275604    0.000000
      4          6           0        0.664818    0.387975    0.000000
      5          1           0        1.591834   -0.144601    0.000000
      6          6           0       -0.664818   -0.387975    0.000000
      7          1           0       -1.591834    0.144601    0.000000
      8          6           0       -0.664818   -1.743027    0.000000
      9          1           0       -1.588652   -2.282161    0.000000
     10          1           0        0.262198   -2.275604    0.000000
 ---------------------------------------------------------------------
 Rotational constants (GHZ):     38.9944242      4.3531817      3.9160136
 Standard basis: 6-31G(d) (6D, 7F)
 There are    28 symmetry adapted basis functions of AG  symmetry.
 There are     8 symmetry adapted basis functions of BG  symmetry.
 There are     8 symmetry adapted basis functions of AU  symmetry.
 There are    28 symmetry adapted basis functions of BU  symmetry.
 Integral buffers will be    131072 words long.
 Raffenetti 2 integral format.
 Two-electron integral symmetry is turned on.
    72 basis functions,   136 primitive gaussians,    72 cartesian basis functions
    15 alpha electrons       15 beta electrons
       nuclear repulsion energy       102.5044004406 Hartrees.
 NAtoms=   10 NActive=   10 NUniq=    5 SFac= 4.00D+00 NAtFMM=   60 NAOKFM=F Big=F
 One-electron integrals computed using PRISM.
 NBasis=    72 RedAO= T  NBF=    28     8     8    28
 NBsUse=    72 1.00D-06 NBFU=    28     8     8    28
 Harris functional with IExCor=  402 diagonalized for initial guess.
 ExpMin= 1.61D-01 ExpMax= 3.05D+03 ExpMxC= 4.57D+02 IAcc=1 IRadAn=         1 AccDes= 0.00D+00
 HarFok:  IExCor=  402 AccDes= 0.00D+00 IRadAn=         1 IDoV= 1
 ScaDFX=  1.000000  1.000000  1.000000  1.000000
 FoFCou: FMM=F IPFlag=           0 FMFlag=      100000 FMFlg1=           0
         NFxFlg=           0 DoJE=T BraDBF=F KetDBF=T FulRan=T
         Omega=  0.000000  0.000000  1.000000  0.000000  0.000000 ICntrl=     500 IOpCl=  0
         NMat0=    1 NMatS0=    1 NMatT0=    0 NMatD0=    1 NMtDS0=    0 NMtDT0=    0
         I1Cent=           4 NGrid=           0.
 Petite list used in FoFCou.
 Initial guess orbital symmetries:
       Occupied  (AG) (BU) (AG) (BU) (AG) (BU) (AG) (BU) (AG) (BU)
                 (AG) (BU) (AG) (AU) (BG)
       Virtual   (AU) (BG) (BU) (AG) (BU) (BU) (AG) (AG) (BU) (AG)
                 (BU) (BU) (AG) (AU) (BG) (BU) (AG) (AG) (BU) (BG)
                 (AU) (AG) (BU) (AG) (BU) (AG) (BU) (BU) (AG) (AG)
                 (BU) (AU) (AG) (BU) (BG) (AU) (BG) (AU) (AG) (AG)
                 (BU) (BU) (BG) (BU) (AG) (AG) (AU) (BU) (BG) (AG)
                 (BU) (BU) (AG) (AG) (BU) (AG) (BU)
 The electronic state of the initial guess is 1-AG.
 Requested convergence on RMS density matrix=1.00D-08 within 128 cycles.
 Requested convergence on MAX density matrix=1.00D-06.
 Requested convergence on             energy=1.00D-06.
 No special actions if energy rises.
 Keep R1 ints in memory in canonical form, NReq=4465012.
 Integral accuracy reduced to 1.0D-05 until final iterations.
 Initial convergence to 1.0D-05 achieved.  Increase integral accuracy.
 SCF Done:  E(RB3LYP) =  -155.984964200     A.U. after   11 cycles
             Convg  =    0.8795D-08             -V/T =  2.0106

 **********************************************************************

            Population analysis using the SCF density.

 **********************************************************************

 Orbital symmetries:
       Occupied  (AG) (BU) (BU) (AG) (AG) (BU) (AG) (BU) (AG) (BU)
                 (BU) (AG) (AG) (AU) (BG)
       Virtual   (AU) (BG) (BU) (AG) (BU) (BU) (AG) (AG) (BU) (AG)
                 (BU) (BU) (AG) (AU) (BG) (BU) (AG) (BG) (BU) (AU)
                 (AG) (AG) (BU) (AG) (BU) (BU) (AG) (BU) (AG) (AG)
                 (BU) (AG) (BU) (AU) (BG) (AU) (BG) (AU) (AG) (AG)
                 (BU) (BU) (BG) (BU) (AG) (AG) (AU) (BU) (BG) (AG)
                 (BU) (BU) (AG) (AG) (BU) (AG) (BU)
 The electronic state is 1-AG.
 Alpha  occ. eigenvalues --  -10.19682 -10.19662 -10.18025 -10.18025  -0.79044
 Alpha  occ. eigenvalues --   -0.72849  -0.59499  -0.55731  -0.46403  -0.45745
 Alpha  occ. eigenvalues --   -0.39160  -0.38743  -0.34609  -0.30934  -0.22863
 Alpha virt. eigenvalues --   -0.01830   0.07058   0.12229   0.12881   0.13149
 Alpha virt. eigenvalues --    0.18012   0.18657   0.21217   0.31778   0.32380
 Alpha virt. eigenvalues --    0.37332   0.46996   0.52197   0.53500   0.58032
 Alpha virt. eigenvalues --    0.60522   0.61643   0.65498   0.66858   0.67288
 Alpha virt. eigenvalues --    0.68643   0.85903   0.86949   0.87717   0.89815
 Alpha virt. eigenvalues --    0.93441   0.94283   0.97019   1.06695   1.09321
 Alpha virt. eigenvalues --    1.13525   1.31642   1.35322   1.35873   1.43318
 Alpha virt. eigenvalues --    1.52686   1.65306   1.75295   1.75828   1.90263
 Alpha virt. eigenvalues --    1.96415   2.05605   2.09896   2.13443   2.16107
 Alpha virt. eigenvalues --    2.29289   2.38757   2.40593   2.40793   2.59332
 Alpha virt. eigenvalues --    2.70519   2.85774   2.91604   4.06100   4.13060
 Alpha virt. eigenvalues --    4.21456   4.42784
     Molecular Orbital Coefficients:
                           1         2         3         4         5
                        (AG)--O   (BU)--O   (BU)--O   (AG)--O   (AG)--O
     Eigenvalues --   -10.19682 -10.19662 -10.18025 -10.18025  -0.79044
   1 1   C  1S          0.01564   0.01600   0.70178   0.70177  -0.09475
   2        2S          0.00033   0.00050   0.03495   0.03486   0.18161
   3        2PX         0.00003  -0.00001  -0.00002  -0.00001  -0.00801
   4        2PY         0.00027   0.00021   0.00002   0.00000  -0.07148
   5        2PZ         0.00000   0.00000   0.00000   0.00000   0.00000
   6        3S          0.00345   0.00347  -0.00999  -0.00898   0.14686
   7        3PX        -0.00037  -0.00061   0.00027  -0.00007   0.00107
   8        3PY        -0.00152  -0.00136   0.00116   0.00052  -0.01281
   9        3PZ         0.00000   0.00000   0.00000   0.00000   0.00000
  10        4XX        -0.00026  -0.00031  -0.00665  -0.00665   0.00013
  11        4YY        -0.00034  -0.00042  -0.00657  -0.00654   0.00616
  12        4ZZ        -0.00028  -0.00020  -0.00690  -0.00693  -0.01014
  13        4XY         0.00001   0.00003  -0.00001   0.00002   0.00061
  14        4XZ         0.00000   0.00000   0.00000   0.00000   0.00000
  15        4YZ         0.00000   0.00000   0.00000   0.00000   0.00000
  16 2   H  1S         -0.00005  -0.00002  -0.00026  -0.00026   0.04482
  17        2S          0.00021   0.00007   0.00142   0.00164   0.00607
  18 3   H  1S         -0.00011  -0.00009  -0.00020  -0.00027   0.05037
  19        2S         -0.00020  -0.00032   0.00160   0.00163   0.01077
  20 4   C  1S          0.70176   0.70193  -0.01631  -0.01597  -0.13065
  21        2S          0.03457   0.03484  -0.00112  -0.00118   0.25526
  22        2PX         0.00010  -0.00019   0.00002   0.00000  -0.03502
  23        2PY         0.00004  -0.00005  -0.00033  -0.00024   0.02418
  24        2PZ         0.00000   0.00000   0.00000   0.00000   0.00000
  25        3S         -0.00756  -0.01328   0.00404   0.00315   0.16765
  26        3PX         0.00003   0.00225  -0.00021   0.00020   0.00138
  27        3PY        -0.00156   0.00017   0.00181   0.00101  -0.02128
  28        3PZ         0.00000   0.00000   0.00000   0.00000   0.00000
  29        4XX        -0.00689  -0.00623  -0.00005   0.00003   0.00359
  30        4YY        -0.00658  -0.00622  -0.00007  -0.00007   0.00421
  31        4ZZ        -0.00682  -0.00659   0.00008   0.00004  -0.01376
  32        4XY        -0.00016   0.00005  -0.00003   0.00002   0.00222
  33        4XZ         0.00000   0.00000   0.00000   0.00000   0.00000
  34        4YZ         0.00000   0.00000   0.00000   0.00000   0.00000
  35 5   H  1S         -0.00037  -0.00022  -0.00002  -0.00007   0.06862
  36        2S          0.00114   0.00138   0.00009  -0.00026   0.00786
  37 6   C  1S          0.70176  -0.70193   0.01631  -0.01597  -0.13065
  38        2S          0.03457  -0.03484   0.00112  -0.00118   0.25526
  39        2PX        -0.00010  -0.00019   0.00002   0.00000   0.03502
  40        2PY        -0.00004  -0.00005  -0.00033   0.00024  -0.02418
  41        2PZ         0.00000   0.00000   0.00000   0.00000   0.00000
  42        3S         -0.00756   0.01328  -0.00404   0.00315   0.16765
  43        3PX        -0.00003   0.00225  -0.00021  -0.00020  -0.00138
  44        3PY         0.00156   0.00017   0.00181  -0.00101   0.02128
  45        3PZ         0.00000   0.00000   0.00000   0.00000   0.00000
  46        4XX        -0.00689   0.00623   0.00005   0.00003   0.00359
  47        4YY        -0.00658   0.00622   0.00007  -0.00007   0.00421
  48        4ZZ        -0.00682   0.00659  -0.00008   0.00004  -0.01376
  49        4XY        -0.00016  -0.00005   0.00003   0.00002   0.00222
  50        4XZ         0.00000   0.00000   0.00000   0.00000   0.00000
  51        4YZ         0.00000   0.00000   0.00000   0.00000   0.00000
  52 7   H  1S         -0.00037   0.00022   0.00002  -0.00007   0.06862
  53        2S          0.00114  -0.00138  -0.00009  -0.00026   0.00786
  54 8   C  1S          0.01564  -0.01600  -0.70178   0.70177  -0.09475
  55        2S          0.00033  -0.00050  -0.03495   0.03486   0.18161
  56        2PX        -0.00003  -0.00001  -0.00002   0.00001   0.00801
  57        2PY        -0.00027   0.00021   0.00002   0.00000   0.07148
  58        2PZ         0.00000   0.00000   0.00000   0.00000   0.00000
  59        3S          0.00345  -0.00347   0.00999  -0.00898   0.14686
  60        3PX         0.00037  -0.00061   0.00027   0.00007  -0.00107
  61        3PY         0.00152  -0.00136   0.00116  -0.00052   0.01281
  62        3PZ         0.00000   0.00000   0.00000   0.00000   0.00000
  63        4XX        -0.00026   0.00031   0.00665  -0.00665   0.00013
  64        4YY        -0.00034   0.00042   0.00657  -0.00654   0.00616
  65        4ZZ        -0.00028   0.00020   0.00690  -0.00693  -0.01014
  66        4XY         0.00001  -0.00003   0.00001   0.00002   0.00061
  67        4XZ         0.00000   0.00000   0.00000   0.00000   0.00000
  68        4YZ         0.00000   0.00000   0.00000   0.00000   0.00000
  69 9   H  1S         -0.00005   0.00002   0.00026  -0.00026   0.04482
  70        2S          0.00021  -0.00007  -0.00142   0.00164   0.00607
  71 10  H  1S         -0.00011   0.00009   0.00020  -0.00027   0.05037
  72        2S         -0.00020   0.00032  -0.00160   0.00163   0.01077
                           6         7         8         9        10
                        (BU)--O   (AG)--O   (BU)--O   (AG)--O   (BU)--O
     Eigenvalues --    -0.72849  -0.59499  -0.55731  -0.46403  -0.45745
   1 1   C  1S         -0.13025  -0.10787   0.05123   0.00634  -0.01676
   2        2S          0.25239   0.21629  -0.10377  -0.01134   0.03570
   3        2PX         0.00691   0.02463   0.08478   0.25627   0.16427
   4        2PY        -0.05858   0.10691  -0.11733  -0.05529   0.25577
   5        2PZ         0.00000   0.00000   0.00000   0.00000   0.00000
   6        3S          0.19783   0.20102  -0.09441  -0.04787   0.04628
   7        3PX        -0.00850   0.01054   0.02989   0.09646   0.07320
   8        3PY        -0.00061   0.04302  -0.04046  -0.00898   0.09378
   9        3PZ         0.00000   0.00000   0.00000   0.00000   0.00000
  10        4XX         0.00247   0.01026  -0.00905  -0.00288   0.01295
  11        4YY         0.00421  -0.00639   0.00679   0.00127  -0.00664
  12        4ZZ        -0.01346  -0.00996   0.00465   0.00083  -0.00125
  13        4XY        -0.00036  -0.00050  -0.00160   0.00550   0.00495
  14        4XZ         0.00000   0.00000   0.00000   0.00000   0.00000
  15        4YZ         0.00000   0.00000   0.00000   0.00000   0.00000
  16 2   H  1S          0.08035   0.12399  -0.04103   0.10086   0.17628
  17        2S          0.02333   0.05200  -0.02085   0.07261   0.12166
  18 3   H  1S          0.07524   0.10455  -0.11205  -0.14515   0.01217
  19        2S          0.01243   0.04276  -0.06156  -0.09727   0.01097
  20 4   C  1S         -0.08622   0.07783  -0.08790  -0.00653   0.03986
  21        2S          0.17353  -0.16000   0.18112   0.01005  -0.08850
  22        2PX         0.04010   0.05584   0.16853   0.23714   0.08678
  23        2PY         0.12256   0.13891  -0.07824   0.04561  -0.19452
  24        2PZ         0.00000   0.00000   0.00000   0.00000   0.00000
  25        3S          0.11145  -0.14379   0.17217   0.02733  -0.05606
  26        3PX         0.02861   0.00798   0.04723   0.07411   0.01584
  27        3PY         0.02638   0.04578  -0.03919   0.04305  -0.06097
  28        3PZ         0.00000   0.00000   0.00000   0.00000   0.00000
  29        4XX        -0.00583  -0.01086   0.00133   0.00399   0.00584
  30        4YY         0.00490   0.00987  -0.00317  -0.00181   0.00383
  31        4ZZ        -0.00798   0.00672  -0.00769  -0.00132   0.00191
  32        4XY        -0.00623  -0.00013  -0.00835  -0.00233   0.00655
  33        4XZ         0.00000   0.00000   0.00000   0.00000   0.00000
  34        4YZ         0.00000   0.00000   0.00000   0.00000   0.00000
  35 5   H  1S          0.04921  -0.07548   0.16968   0.10640   0.05667
  36        2S          0.00550  -0.02597   0.09150   0.08028   0.05440
  37 6   C  1S          0.08622   0.07783   0.08790  -0.00653  -0.03986
  38        2S         -0.17353  -0.16000  -0.18112   0.01005   0.08850
  39        2PX         0.04010  -0.05584   0.16853  -0.23714   0.08678
  40        2PY         0.12256  -0.13891  -0.07824  -0.04561  -0.19452
  41        2PZ         0.00000   0.00000   0.00000   0.00000   0.00000
  42        3S         -0.11145  -0.14379  -0.17217   0.02733   0.05606
  43        3PX         0.02861  -0.00798   0.04723  -0.07411   0.01584
  44        3PY         0.02638  -0.04578  -0.03919  -0.04305  -0.06097
  45        3PZ         0.00000   0.00000   0.00000   0.00000   0.00000
  46        4XX         0.00583  -0.01086  -0.00133   0.00399  -0.00584
  47        4YY        -0.00490   0.00987   0.00317  -0.00181  -0.00383
  48        4ZZ         0.00798   0.00672   0.00769  -0.00132  -0.00191
  49        4XY         0.00623  -0.00013   0.00835  -0.00233  -0.00655
  50        4XZ         0.00000   0.00000   0.00000   0.00000   0.00000
  51        4YZ         0.00000   0.00000   0.00000   0.00000   0.00000
  52 7   H  1S         -0.04921  -0.07548  -0.16968   0.10640  -0.05667
  53        2S         -0.00550  -0.02597  -0.09150   0.08028  -0.05440
  54 8   C  1S          0.13025  -0.10787  -0.05123   0.00634   0.01676
  55        2S         -0.25239   0.21629   0.10377  -0.01134  -0.03570
  56        2PX         0.00691  -0.02463   0.08478  -0.25627   0.16427
  57        2PY        -0.05858  -0.10691  -0.11733   0.05529   0.25577
  58        2PZ         0.00000   0.00000   0.00000   0.00000   0.00000
  59        3S         -0.19783   0.20102   0.09441  -0.04787  -0.04628
  60        3PX        -0.00850  -0.01054   0.02989  -0.09646   0.07320
  61        3PY        -0.00061  -0.04302  -0.04046   0.00898   0.09378
  62        3PZ         0.00000   0.00000   0.00000   0.00000   0.00000
  63        4XX        -0.00247   0.01026   0.00905  -0.00288  -0.01295
  64        4YY        -0.00421  -0.00639  -0.00679   0.00127   0.00664
  65        4ZZ         0.01346  -0.00996  -0.00465   0.00083   0.00125
  66        4XY         0.00036  -0.00050   0.00160   0.00550  -0.00495
  67        4XZ         0.00000   0.00000   0.00000   0.00000   0.00000
  68        4YZ         0.00000   0.00000   0.00000   0.00000   0.00000
  69 9   H  1S         -0.08035   0.12399   0.04103   0.10086  -0.17628
  70        2S         -0.02333   0.05200   0.02085   0.07261  -0.12166
  71 10  H  1S         -0.07524   0.10455   0.11205  -0.14515  -0.01217
  72        2S         -0.01243   0.04276   0.06156  -0.09727  -0.01097
                          11        12        13        14        15
                        (BU)--O   (AG)--O   (AG)--O   (AU)--O   (BG)--O
     Eigenvalues --    -0.39160  -0.38743  -0.34609  -0.30934  -0.22863
   1 1   C  1S         -0.00499  -0.02316  -0.00691   0.00000   0.00000
   2        2S          0.00901   0.05041   0.01524   0.00000   0.00000
   3        2PX         0.26708   0.00782  -0.19229   0.00000   0.00000
   4        2PY        -0.12838  -0.29064  -0.08858   0.00000   0.00000
   5        2PZ         0.00000   0.00000   0.00000   0.22797   0.33327
   6        3S          0.01632   0.09130   0.02711   0.00000   0.00000
   7        3PX         0.08443   0.01092  -0.05709   0.00000   0.00000
   8        3PY        -0.06018  -0.11325  -0.04707   0.00000   0.00000
   9        3PZ         0.00000   0.00000   0.00000   0.15130   0.26813
  10        4XX        -0.00553  -0.01322  -0.00289   0.00000   0.00000
  11        4YY         0.00157   0.00415   0.00053   0.00000   0.00000
  12        4ZZ        -0.00058  -0.00092  -0.00025   0.00000   0.00000
  13        4XY         0.01820   0.00288  -0.02181   0.00000   0.00000
  14        4XZ         0.00000   0.00000   0.00000  -0.00104   0.00078
  15        4YZ         0.00000   0.00000   0.00000  -0.01193  -0.01001
  16 2   H  1S          0.11513  -0.06922  -0.15193   0.00000   0.00000
  17        2S          0.10831  -0.07541  -0.15839   0.00000   0.00000
  18 3   H  1S         -0.18994  -0.08514   0.10864   0.00000   0.00000
  19        2S         -0.16693  -0.09333   0.12254   0.00000   0.00000
  20 4   C  1S          0.01603  -0.00574   0.01788   0.00000   0.00000
  21        2S         -0.02863   0.01539  -0.04028   0.00000   0.00000
  22        2PX        -0.07922  -0.07480   0.29904   0.00000   0.00000
  23        2PY         0.16656   0.30090   0.12244   0.00000   0.00000
  24        2PZ         0.00000   0.00000   0.00000   0.31789   0.24428
  25        3S         -0.09337  -0.01829  -0.09688   0.00000   0.00000
  26        3PX        -0.00156  -0.00822   0.10878   0.00000   0.00000
  27        3PY         0.06072   0.05838   0.03337   0.00000   0.00000
  28        3PZ         0.00000   0.00000   0.00000   0.20548   0.16718
  29        4XX        -0.00430  -0.01833  -0.00006   0.00000   0.00000
  30        4YY         0.00048   0.01118   0.00295   0.00000   0.00000
  31        4ZZ         0.00201   0.00032   0.00017   0.00000   0.00000
  32        4XY         0.01348   0.01058  -0.02005   0.00000   0.00000
  33        4XZ         0.00000   0.00000   0.00000  -0.00671   0.00720
  34        4YZ         0.00000   0.00000   0.00000   0.00366   0.01911
  35 5   H  1S         -0.11916  -0.14812   0.13042   0.00000   0.00000
  36        2S         -0.10067  -0.15874   0.14443   0.00000   0.00000
  37 6   C  1S         -0.01603  -0.00574   0.01788   0.00000   0.00000
  38        2S          0.02863   0.01539  -0.04028   0.00000   0.00000
  39        2PX        -0.07922   0.07480  -0.29904   0.00000   0.00000
  40        2PY         0.16656  -0.30090  -0.12244   0.00000   0.00000
  41        2PZ         0.00000   0.00000   0.00000   0.31789  -0.24428
  42        3S          0.09337  -0.01829  -0.09688   0.00000   0.00000
  43        3PX        -0.00156   0.00822  -0.10878   0.00000   0.00000
  44        3PY         0.06072  -0.05838  -0.03337   0.00000   0.00000
  45        3PZ         0.00000   0.00000   0.00000   0.20548  -0.16718
  46        4XX         0.00430  -0.01833  -0.00006   0.00000   0.00000
  47        4YY        -0.00048   0.01118   0.00295   0.00000   0.00000
  48        4ZZ        -0.00201   0.00032   0.00017   0.00000   0.00000
  49        4XY        -0.01348   0.01058  -0.02005   0.00000   0.00000
  50        4XZ         0.00000   0.00000   0.00000   0.00671   0.00720
  51        4YZ         0.00000   0.00000   0.00000  -0.00366   0.01911
  52 7   H  1S          0.11916  -0.14812   0.13042   0.00000   0.00000
  53        2S          0.10067  -0.15874   0.14443   0.00000   0.00000
  54 8   C  1S          0.00499  -0.02316  -0.00691   0.00000   0.00000
  55        2S         -0.00901   0.05041   0.01524   0.00000   0.00000
  56        2PX         0.26708  -0.00782   0.19229   0.00000   0.00000
  57        2PY        -0.12838   0.29064   0.08858   0.00000   0.00000
  58        2PZ         0.00000   0.00000   0.00000   0.22797  -0.33327
  59        3S         -0.01632   0.09130   0.02711   0.00000   0.00000
  60        3PX         0.08443  -0.01092   0.05709   0.00000   0.00000
  61        3PY        -0.06018   0.11325   0.04707   0.00000   0.00000
  62        3PZ         0.00000   0.00000   0.00000   0.15130  -0.26813
  63        4XX         0.00553  -0.01322  -0.00289   0.00000   0.00000
  64        4YY        -0.00157   0.00415   0.00053   0.00000   0.00000
  65        4ZZ         0.00058  -0.00092  -0.00025   0.00000   0.00000
  66        4XY        -0.01820   0.00288  -0.02181   0.00000   0.00000
  67        4XZ         0.00000   0.00000   0.00000   0.00104   0.00078
  68        4YZ         0.00000   0.00000   0.00000   0.01193  -0.01001
  69 9   H  1S         -0.11513  -0.06922  -0.15193   0.00000   0.00000
  70        2S         -0.10831  -0.07541  -0.15839   0.00000   0.00000
  71 10  H  1S          0.18994  -0.08514   0.10864   0.00000   0.00000
  72        2S          0.16693  -0.09333   0.12254   0.00000   0.00000
                          16        17        18        19        20
                        (AU)--V   (BG)--V   (BU)--V   (AG)--V   (BU)--V
     Eigenvalues --    -0.01830   0.07058   0.12229   0.12881   0.13149
   1 1   C  1S          0.00000   0.00000  -0.03062  -0.05438  -0.08805
   2        2S          0.00000   0.00000   0.04365   0.07786   0.14371
   3        2PX         0.00000   0.00000  -0.17644   0.04155   0.04066
   4        2PY         0.00000   0.00000   0.05080   0.17285   0.10550
   5        2PZ         0.34912  -0.21959   0.00000   0.00000   0.00000
   6        3S          0.00000   0.00000   0.47816   0.93093   1.38179
   7        3PX         0.00000   0.00000  -0.40563   0.00749   0.20104
   8        3PY         0.00000   0.00000   0.14480   0.52326   0.36181
   9        3PZ         0.43820  -0.44394   0.00000   0.00000   0.00000
  10        4XX         0.00000   0.00000  -0.00128  -0.00964  -0.01161
  11        4YY         0.00000   0.00000  -0.00082   0.00512  -0.00114
  12        4ZZ         0.00000   0.00000  -0.00335  -0.00371  -0.00337
  13        4XY         0.00000   0.00000   0.01162  -0.00922  -0.00249
  14        4XZ         0.00207   0.00498   0.00000   0.00000   0.00000
  15        4YZ         0.01473  -0.02248   0.00000   0.00000   0.00000
  16 2   H  1S          0.00000   0.00000   0.01451  -0.05589  -0.04232
  17        2S          0.00000   0.00000   0.23860  -0.88434  -1.04379
  18 3   H  1S          0.00000   0.00000  -0.04278  -0.00649  -0.04355
  19        2S          0.00000   0.00000  -0.90544  -0.62602  -0.69729
  20 4   C  1S          0.00000   0.00000   0.03922  -0.04333  -0.03019
  21        2S          0.00000   0.00000  -0.05965   0.06497   0.02662
  22        2PX         0.00000   0.00000  -0.18577   0.14133   0.01254
  23        2PY         0.00000   0.00000   0.06875  -0.08861  -0.08986
  24        2PZ        -0.25541   0.38283   0.00000   0.00000   0.00000
  25        3S          0.00000   0.00000  -0.56256   0.85980   0.68034
  26        3PX         0.00000   0.00000  -0.44713   0.47113  -0.26595
  27        3PY         0.00000   0.00000   0.12536  -0.23217  -0.44672
  28        3PZ        -0.31103   0.62090   0.00000   0.00000   0.00000
  29        4XX         0.00000   0.00000   0.00547   0.00438  -0.01925
  30        4YY         0.00000   0.00000  -0.00190  -0.00922   0.01648
  31        4ZZ         0.00000   0.00000   0.00431  -0.00195  -0.00229
  32        4XY         0.00000   0.00000  -0.01513   0.00093   0.00594
  33        4XZ         0.00914   0.02082   0.00000   0.00000   0.00000
  34        4YZ         0.02188  -0.00771   0.00000   0.00000   0.00000
  35 5   H  1S          0.00000   0.00000   0.06474   0.00766  -0.05381
  36        2S          0.00000   0.00000   1.04251  -0.92915  -0.41910
  37 6   C  1S          0.00000   0.00000  -0.03922  -0.04333   0.03019
  38        2S          0.00000   0.00000   0.05965   0.06497  -0.02662
  39        2PX         0.00000   0.00000  -0.18577  -0.14133   0.01254
  40        2PY         0.00000   0.00000   0.06875   0.08861  -0.08986
  41        2PZ        -0.25541  -0.38283   0.00000   0.00000   0.00000
  42        3S          0.00000   0.00000   0.56256   0.85980  -0.68034
  43        3PX         0.00000   0.00000  -0.44713  -0.47113  -0.26595
  44        3PY         0.00000   0.00000   0.12536   0.23217  -0.44672
  45        3PZ        -0.31103  -0.62090   0.00000   0.00000   0.00000
  46        4XX         0.00000   0.00000  -0.00547   0.00438   0.01925
  47        4YY         0.00000   0.00000   0.00190  -0.00922  -0.01648
  48        4ZZ         0.00000   0.00000  -0.00431  -0.00195   0.00229
  49        4XY         0.00000   0.00000   0.01513   0.00093  -0.00594
  50        4XZ        -0.00914   0.02082   0.00000   0.00000   0.00000
  51        4YZ        -0.02188  -0.00771   0.00000   0.00000   0.00000
  52 7   H  1S          0.00000   0.00000  -0.06474   0.00766   0.05381
  53        2S          0.00000   0.00000  -1.04251  -0.92915   0.41910
  54 8   C  1S          0.00000   0.00000   0.03062  -0.05438   0.08805
  55        2S          0.00000   0.00000  -0.04365   0.07786  -0.14371
  56        2PX         0.00000   0.00000  -0.17644  -0.04155   0.04066
  57        2PY         0.00000   0.00000   0.05080  -0.17285   0.10550
  58        2PZ         0.34912   0.21959   0.00000   0.00000   0.00000
  59        3S          0.00000   0.00000  -0.47816   0.93093  -1.38179
  60        3PX         0.00000   0.00000  -0.40563  -0.00749   0.20104
  61        3PY         0.00000   0.00000   0.14480  -0.52326   0.36181
  62        3PZ         0.43820   0.44394   0.00000   0.00000   0.00000
  63        4XX         0.00000   0.00000   0.00128  -0.00964   0.01161
  64        4YY         0.00000   0.00000   0.00082   0.00512   0.00114
  65        4ZZ         0.00000   0.00000   0.00335  -0.00371   0.00337
  66        4XY         0.00000   0.00000  -0.01162  -0.00922   0.00249
  67        4XZ        -0.00207   0.00498   0.00000   0.00000   0.00000
  68        4YZ        -0.01473  -0.02248   0.00000   0.00000   0.00000
  69 9   H  1S          0.00000   0.00000  -0.01451  -0.05589   0.04232
  70        2S          0.00000   0.00000  -0.23860  -0.88434   1.04379
  71 10  H  1S          0.00000   0.00000   0.04278  -0.00649   0.04355
  72        2S          0.00000   0.00000   0.90544  -0.62602   0.69729
                          21        22        23        24        25
                        (BU)--V   (AG)--V   (AG)--V   (BU)--V   (AG)--V
     Eigenvalues --     0.18012   0.18657   0.21217   0.31778   0.32380
   1 1   C  1S          0.03253   0.06718   0.04518   0.05296   0.04196
   2        2S         -0.05069  -0.09543  -0.05520  -0.03395   0.03536
   3        2PX        -0.17478   0.19347  -0.25029   0.15353  -0.05707
   4        2PY        -0.01692  -0.07327  -0.04599  -0.01619   0.04417
   5        2PZ         0.00000   0.00000   0.00000   0.00000   0.00000
   6        3S         -0.39240  -1.13500  -0.83501  -1.13994  -2.40472
   7        3PX        -0.70596   0.63482  -1.04984   1.14712   0.15883
   8        3PY         0.01561   0.00124   0.13021   1.07844   2.02600
   9        3PZ         0.00000   0.00000   0.00000   0.00000   0.00000
  10        4XX        -0.00612   0.00004  -0.00180  -0.02046  -0.02842
  11        4YY         0.00849   0.00736   0.00544   0.02138   0.01341
  12        4ZZ         0.00381   0.00398   0.00301   0.00667   0.01190
  13        4XY         0.01624  -0.01395  -0.00970   0.02647  -0.01320
  14        4XZ         0.00000   0.00000   0.00000   0.00000   0.00000
  15        4YZ         0.00000   0.00000   0.00000   0.00000   0.00000
  16 2   H  1S          0.06672  -0.01340   0.00061   0.02591  -0.10882
  17        2S          1.03940  -0.17325   1.39035  -0.89984  -0.29129
  18 3   H  1S         -0.04447   0.07463   0.03179  -0.08568  -0.03556
  19        2S         -0.54575   1.36520  -0.65280   0.91947  -0.17781
  20 4   C  1S         -0.10107  -0.04907  -0.04182  -0.08651  -0.04545
  21        2S          0.17341   0.07622   0.04112   0.06106   0.03711
  22        2PX        -0.11269   0.09803   0.14981  -0.27054  -0.12321
  23        2PY        -0.15468  -0.00592   0.00599   0.10589   0.17309
  24        2PZ         0.00000   0.00000   0.00000   0.00000   0.00000
  25        3S          1.28339   0.82156   1.14412   2.43404   1.92451
  26        3PX        -0.01125   0.18538   0.73058  -1.76179  -0.67462
  27        3PY        -0.39504   0.07772  -0.01385   0.16325   2.45411
  28        3PZ         0.00000   0.00000   0.00000   0.00000   0.00000
  29        4XX        -0.01904   0.00132   0.00390  -0.00842  -0.00236
  30        4YY        -0.00188  -0.00912  -0.00185   0.00285   0.00659
  31        4ZZ         0.00144  -0.00133  -0.00550  -0.00401  -0.00454
  32        4XY        -0.02506   0.01554  -0.01154  -0.00693   0.01564
  33        4XZ         0.00000   0.00000   0.00000   0.00000   0.00000
  34        4YZ         0.00000   0.00000   0.00000   0.00000   0.00000
  35 5   H  1S         -0.03204  -0.07411   0.00928  -0.00295  -0.00301
  36        2S         -0.80958  -0.71777  -1.04116   0.85396   1.19342
  37 6   C  1S          0.10107  -0.04907  -0.04182   0.08651  -0.04545
  38        2S         -0.17341   0.07622   0.04112  -0.06106   0.03711
  39        2PX        -0.11269  -0.09803  -0.14981  -0.27054   0.12321
  40        2PY        -0.15468   0.00592  -0.00599   0.10589  -0.17309
  41        2PZ         0.00000   0.00000   0.00000   0.00000   0.00000
  42        3S         -1.28339   0.82156   1.14412  -2.43404   1.92451
  43        3PX        -0.01125  -0.18538  -0.73058  -1.76179   0.67462
  44        3PY        -0.39504  -0.07772   0.01385   0.16325  -2.45411
  45        3PZ         0.00000   0.00000   0.00000   0.00000   0.00000
  46        4XX         0.01904   0.00132   0.00390   0.00842  -0.00236
  47        4YY         0.00188  -0.00912  -0.00185  -0.00285   0.00659
  48        4ZZ        -0.00144  -0.00133  -0.00550   0.00401  -0.00454
  49        4XY         0.02506   0.01554  -0.01154   0.00693   0.01564
  50        4XZ         0.00000   0.00000   0.00000   0.00000   0.00000
  51        4YZ         0.00000   0.00000   0.00000   0.00000   0.00000
  52 7   H  1S          0.03204  -0.07411   0.00928   0.00295  -0.00301
  53        2S          0.80958  -0.71777  -1.04116  -0.85396   1.19342
  54 8   C  1S         -0.03253   0.06718   0.04518  -0.05296   0.04196
  55        2S          0.05069  -0.09543  -0.05520   0.03395   0.03536
  56        2PX        -0.17478  -0.19347   0.25029   0.15353   0.05707
  57        2PY        -0.01692   0.07327   0.04599  -0.01619  -0.04417
  58        2PZ         0.00000   0.00000   0.00000   0.00000   0.00000
  59        3S          0.39240  -1.13500  -0.83501   1.13994  -2.40472
  60        3PX        -0.70596  -0.63482   1.04984   1.14712  -0.15883
  61        3PY         0.01561  -0.00124  -0.13021   1.07844  -2.02600
  62        3PZ         0.00000   0.00000   0.00000   0.00000   0.00000
  63        4XX         0.00612   0.00004  -0.00180   0.02046  -0.02842
  64        4YY        -0.00849   0.00736   0.00544  -0.02138   0.01341
  65        4ZZ        -0.00381   0.00398   0.00301  -0.00667   0.01190
  66        4XY        -0.01624  -0.01395  -0.00970  -0.02647  -0.01320
  67        4XZ         0.00000   0.00000   0.00000   0.00000   0.00000
  68        4YZ         0.00000   0.00000   0.00000   0.00000   0.00000
  69 9   H  1S         -0.06672  -0.01340   0.00061  -0.02591  -0.10882
  70        2S         -1.03940  -0.17325   1.39035   0.89984  -0.29129
  71 10  H  1S          0.04447   0.07463   0.03179   0.08568  -0.03556
  72        2S          0.54575   1.36520  -0.65280  -0.91947  -0.17781
                          26        27        28        29        30
                        (BU)--V   (BU)--V   (AG)--V   (AU)--V   (BG)--V
     Eigenvalues --     0.37332   0.46996   0.52197   0.53500   0.58032
   1 1   C  1S          0.04169  -0.00079  -0.00735   0.00000   0.00000
   2        2S         -0.06430   0.19016  -0.06264   0.00000   0.00000
   3        2PX        -0.03532  -0.15148  -0.21951   0.00000   0.00000
   4        2PY         0.19467  -0.43074   0.28495   0.00000   0.00000
   5        2PZ         0.00000   0.00000   0.00000   0.51149  -0.75576
   6        3S         -1.28304  -0.16371  -0.51748   0.00000   0.00000
   7        3PX        -0.69415   0.19490   0.46220   0.00000   0.00000
   8        3PY         1.67716   0.59822  -0.46784   0.00000   0.00000
   9        3PZ         0.00000   0.00000   0.00000  -0.45467   0.81711
  10        4XX        -0.01893  -0.01518   0.02319   0.00000   0.00000
  11        4YY         0.02397   0.02365  -0.04446   0.00000   0.00000
  12        4ZZ        -0.00184   0.00992   0.00327   0.00000   0.00000
  13        4XY        -0.00781  -0.05192  -0.05505   0.00000   0.00000
  14        4XZ         0.00000   0.00000   0.00000   0.00441  -0.00047
  15        4YZ         0.00000   0.00000   0.00000  -0.03572   0.01600
  16 2   H  1S         -0.08112  -0.17729  -0.14066   0.00000   0.00000
  17        2S          0.01894   0.15166   0.04290   0.00000   0.00000
  18 3   H  1S         -0.07451   0.08060   0.27348   0.00000   0.00000
  19        2S         -1.00876  -0.03082   0.19640   0.00000   0.00000
  20 4   C  1S         -0.01743   0.03962  -0.01148   0.00000   0.00000
  21        2S          0.00670  -0.09403  -0.08719   0.00000   0.00000
  22        2PX         0.22918   0.17725  -0.20561   0.00000   0.00000
  23        2PY         0.23526   0.31617  -0.29613   0.00000   0.00000
  24        2PZ         0.00000   0.00000   0.00000   0.52763  -0.06542
  25        3S          1.02242   0.58481   0.20443   0.00000   0.00000
  26        3PX         1.27631  -0.27976   0.11705   0.00000   0.00000
  27        3PY         1.64524  -0.48024   0.79344   0.00000   0.00000
  28        3PZ         0.00000   0.00000   0.00000  -0.38178  -0.06958
  29        4XX         0.03871  -0.02201   0.02747   0.00000   0.00000
  30        4YY        -0.02950   0.07709  -0.04194   0.00000   0.00000
  31        4ZZ        -0.00651  -0.02884   0.00788   0.00000   0.00000
  32        4XY         0.00060   0.05319   0.05570   0.00000   0.00000
  33        4XZ         0.00000   0.00000   0.00000  -0.01441   0.00277
  34        4YZ         0.00000   0.00000   0.00000   0.03223  -0.03064
  35 5   H  1S          0.05561  -0.14717  -0.16351   0.00000   0.00000
  36        2S         -0.56914   0.04014   0.19584   0.00000   0.00000
  37 6   C  1S          0.01743  -0.03962  -0.01148   0.00000   0.00000
  38        2S         -0.00670   0.09403  -0.08719   0.00000   0.00000
  39        2PX         0.22918   0.17725   0.20561   0.00000   0.00000
  40        2PY         0.23526   0.31617   0.29613   0.00000   0.00000
  41        2PZ         0.00000   0.00000   0.00000   0.52763   0.06542
  42        3S         -1.02242  -0.58481   0.20443   0.00000   0.00000
  43        3PX         1.27631  -0.27976  -0.11705   0.00000   0.00000
  44        3PY         1.64524  -0.48024  -0.79344   0.00000   0.00000
  45        3PZ         0.00000   0.00000   0.00000  -0.38178   0.06958
  46        4XX        -0.03871   0.02201   0.02747   0.00000   0.00000
  47        4YY         0.02950  -0.07709  -0.04194   0.00000   0.00000
  48        4ZZ         0.00651   0.02884   0.00788   0.00000   0.00000
  49        4XY        -0.00060  -0.05319   0.05570   0.00000   0.00000
  50        4XZ         0.00000   0.00000   0.00000   0.01441   0.00277
  51        4YZ         0.00000   0.00000   0.00000  -0.03223  -0.03064
  52 7   H  1S         -0.05561   0.14717  -0.16351   0.00000   0.00000
  53        2S          0.56914  -0.04014   0.19584   0.00000   0.00000
  54 8   C  1S         -0.04169   0.00079  -0.00735   0.00000   0.00000
  55        2S          0.06430  -0.19016  -0.06264   0.00000   0.00000
  56        2PX        -0.03532  -0.15148   0.21951   0.00000   0.00000
  57        2PY         0.19467  -0.43074  -0.28495   0.00000   0.00000
  58        2PZ         0.00000   0.00000   0.00000   0.51149   0.75576
  59        3S          1.28304   0.16371  -0.51748   0.00000   0.00000
  60        3PX        -0.69415   0.19490  -0.46220   0.00000   0.00000
  61        3PY         1.67716   0.59822   0.46784   0.00000   0.00000
  62        3PZ         0.00000   0.00000   0.00000  -0.45467  -0.81711
  63        4XX         0.01893   0.01518   0.02319   0.00000   0.00000
  64        4YY        -0.02397  -0.02365  -0.04446   0.00000   0.00000
  65        4ZZ         0.00184  -0.00992   0.00327   0.00000   0.00000
  66        4XY         0.00781   0.05192  -0.05505   0.00000   0.00000
  67        4XZ         0.00000   0.00000   0.00000  -0.00441  -0.00047
  68        4YZ         0.00000   0.00000   0.00000   0.03572   0.01600
  69 9   H  1S          0.08112   0.17729  -0.14066   0.00000   0.00000
  70        2S         -0.01894  -0.15166   0.04290   0.00000   0.00000
  71 10  H  1S          0.07451  -0.08060   0.27348   0.00000   0.00000
  72        2S          1.00876   0.03082   0.19640   0.00000   0.00000
                          31        32        33        34        35
                        (BU)--V   (AG)--V   (BG)--V   (BU)--V   (AU)--V
     Eigenvalues --     0.60522   0.61643   0.65498   0.66858   0.67288
   1 1   C  1S          0.00184  -0.00931   0.00000  -0.06213   0.00000
   2        2S         -0.24664  -0.47277   0.00000  -0.29227   0.00000
   3        2PX        -0.19550   0.05580   0.00000   0.04522   0.00000
   4        2PY         0.17890   0.17515   0.00000  -0.33205   0.00000
   5        2PZ         0.00000   0.00000   0.10545   0.00000  -0.55606
   6        3S          0.06042   0.44748   0.00000   0.82120   0.00000
   7        3PX         0.40274  -0.18250   0.00000  -0.14440   0.00000
   8        3PY         0.15467   0.23832   0.00000   0.54940   0.00000
   9        3PZ         0.00000   0.00000  -0.41591   0.00000   0.83381
  10        4XX        -0.04361  -0.07792   0.00000  -0.08220   0.00000
  11        4YY        -0.01518  -0.03755   0.00000  -0.11663   0.00000
  12        4ZZ         0.01216   0.02562   0.00000   0.07000   0.00000
  13        4XY        -0.04126   0.00515   0.00000   0.02329   0.00000
  14        4XZ         0.00000   0.00000   0.02499   0.00000   0.01114
  15        4YZ         0.00000   0.00000   0.03070   0.00000   0.00064
  16 2   H  1S         -0.29081  -0.17608   0.00000  -0.29380   0.00000
  17        2S         -0.17848  -0.03694   0.00000  -0.13543   0.00000
  18 3   H  1S          0.07875  -0.25207   0.00000  -0.43480   0.00000
  19        2S          0.02584  -0.20848   0.00000  -0.18376   0.00000
  20 4   C  1S         -0.04936  -0.03008   0.00000   0.03571   0.00000
  21        2S         -0.06654  -0.66341   0.00000  -0.29447   0.00000
  22        2PX        -0.35794   0.20603   0.00000   0.04166   0.00000
  23        2PY        -0.10032   0.08232   0.00000  -0.38565   0.00000
  24        2PZ         0.00000   0.00000  -0.75559   0.00000   0.54827
  25        3S          0.21231   1.08211   0.00000   0.20323   0.00000
  26        3PX         0.78696  -0.03956   0.00000  -0.02752   0.00000
  27        3PY         0.39796   0.17481   0.00000   0.33139   0.00000
  28        3PZ         0.00000   0.00000   1.31561   0.00000  -0.71472
  29        4XX        -0.08507  -0.12017   0.00000  -0.03557   0.00000
  30        4YY        -0.03463  -0.09543   0.00000   0.05313   0.00000
  31        4ZZ         0.05276   0.04186   0.00000  -0.02118   0.00000
  32        4XY         0.02527  -0.00860   0.00000  -0.00491   0.00000
  33        4XZ         0.00000   0.00000   0.02187   0.00000  -0.01517
  34        4YZ         0.00000   0.00000  -0.02395   0.00000  -0.03182
  35 5   H  1S         -0.44810  -0.27673   0.00000   0.09935   0.00000
  36        2S         -0.10752  -0.05399   0.00000   0.04018   0.00000
  37 6   C  1S          0.04936  -0.03008   0.00000  -0.03571   0.00000
  38        2S          0.06654  -0.66341   0.00000   0.29447   0.00000
  39        2PX        -0.35794  -0.20603   0.00000   0.04166   0.00000
  40        2PY        -0.10032  -0.08232   0.00000  -0.38565   0.00000
  41        2PZ         0.00000   0.00000   0.75559   0.00000   0.54827
  42        3S         -0.21231   1.08211   0.00000  -0.20323   0.00000
  43        3PX         0.78696   0.03956   0.00000  -0.02752   0.00000
  44        3PY         0.39796  -0.17481   0.00000   0.33139   0.00000
  45        3PZ         0.00000   0.00000  -1.31561   0.00000  -0.71472
  46        4XX         0.08507  -0.12017   0.00000   0.03557   0.00000
  47        4YY         0.03463  -0.09543   0.00000  -0.05313   0.00000
  48        4ZZ        -0.05276   0.04186   0.00000   0.02118   0.00000
  49        4XY        -0.02527  -0.00860   0.00000   0.00491   0.00000
  50        4XZ         0.00000   0.00000   0.02187   0.00000   0.01517
  51        4YZ         0.00000   0.00000  -0.02395   0.00000   0.03182
  52 7   H  1S          0.44810  -0.27673   0.00000  -0.09935   0.00000
  53        2S          0.10752  -0.05399   0.00000  -0.04018   0.00000
  54 8   C  1S         -0.00184  -0.00931   0.00000   0.06213   0.00000
  55        2S          0.24664  -0.47277   0.00000   0.29227   0.00000
  56        2PX        -0.19550  -0.05580   0.00000   0.04522   0.00000
  57        2PY         0.17890  -0.17515   0.00000  -0.33205   0.00000
  58        2PZ         0.00000   0.00000  -0.10545   0.00000  -0.55606
  59        3S         -0.06042   0.44748   0.00000  -0.82120   0.00000
  60        3PX         0.40274   0.18250   0.00000  -0.14440   0.00000
  61        3PY         0.15467  -0.23832   0.00000   0.54940   0.00000
  62        3PZ         0.00000   0.00000   0.41591   0.00000   0.83381
  63        4XX         0.04361  -0.07792   0.00000   0.08220   0.00000
  64        4YY         0.01518  -0.03755   0.00000   0.11663   0.00000
  65        4ZZ        -0.01216   0.02562   0.00000  -0.07000   0.00000
  66        4XY         0.04126   0.00515   0.00000  -0.02329   0.00000
  67        4XZ         0.00000   0.00000   0.02499   0.00000  -0.01114
  68        4YZ         0.00000   0.00000   0.03070   0.00000  -0.00064
  69 9   H  1S          0.29081  -0.17608   0.00000   0.29380   0.00000
  70        2S          0.17848  -0.03694   0.00000   0.13543   0.00000
  71 10  H  1S         -0.07875  -0.25207   0.00000   0.43480   0.00000
  72        2S         -0.02584  -0.20848   0.00000   0.18376   0.00000
                          36        37        38        39        40
                        (AG)--V   (AG)--V   (BU)--V   (AG)--V   (BU)--V
     Eigenvalues --     0.68643   0.85903   0.86949   0.87717   0.89815
   1 1   C  1S         -0.06947   0.00408  -0.00469  -0.00366  -0.00767
   2        2S         -0.10287  -0.12897   0.00604   0.36927   0.54984
   3        2PX        -0.01440   0.60038  -0.78282   0.42465   0.06787
   4        2PY        -0.47495  -0.00953   0.10801   0.01223  -0.05611
   5        2PZ         0.00000   0.00000   0.00000   0.00000   0.00000
   6        3S          0.79604   0.85393  -0.06977  -1.35473  -1.09459
   7        3PX         0.06800  -1.73283   2.13151  -0.78855  -0.89133
   8        3PY         0.40367  -0.21111  -0.18827   0.32259   0.33719
   9        3PZ         0.00000   0.00000   0.00000   0.00000   0.00000
  10        4XX        -0.05684  -0.00310  -0.01488   0.01505   0.02633
  11        4YY        -0.11475   0.01330  -0.00086   0.00495   0.04827
  12        4ZZ         0.06595  -0.02205   0.01290   0.02284   0.01220
  13        4XY        -0.01745  -0.05526   0.07287  -0.10541   0.03526
  14        4XZ         0.00000   0.00000   0.00000   0.00000   0.00000
  15        4YZ         0.00000   0.00000   0.00000   0.00000   0.00000
  16 2   H  1S         -0.36438  -0.25324   0.21960  -0.24771  -0.13720
  17        2S         -0.08662   1.03455  -1.22946   0.88426   0.54025
  18 3   H  1S         -0.24325   0.27635  -0.31755   0.18756  -0.09140
  19        2S         -0.06919  -1.17646   1.50440  -0.60144  -0.25579
  20 4   C  1S          0.05050   0.01565   0.00354  -0.00850   0.04025
  21        2S         -0.07301  -0.22364  -0.23877   0.34638   0.05621
  22        2PX        -0.11443  -0.50410   0.11062   0.44965  -0.68754
  23        2PY        -0.47888   0.25006   0.11052  -0.28297   0.05031
  24        2PZ         0.00000   0.00000   0.00000   0.00000   0.00000
  25        3S         -0.11294   0.74054   1.05219  -0.48436  -0.95109
  26        3PX         0.11268   1.73853  -1.32640  -0.97736   2.74871
  27        3PY         0.13399  -1.18272  -0.38679   1.25797   0.72584
  28        3PZ         0.00000   0.00000   0.00000   0.00000   0.00000
  29        4XX         0.02113   0.02071   0.04419  -0.02517   0.02771
  30        4YY         0.09362  -0.01056  -0.02407   0.04795   0.03033
  31        4ZZ        -0.04887  -0.03613  -0.03354   0.03811  -0.05883
  32        4XY        -0.00129   0.05946  -0.05665   0.08073  -0.09596
  33        4XZ         0.00000   0.00000   0.00000   0.00000   0.00000
  34        4YZ         0.00000   0.00000   0.00000   0.00000   0.00000
  35 5   H  1S          0.11453   0.11036   0.18059  -0.39718   0.43240
  36        2S         -0.08771  -1.36608   0.07100   1.45039  -1.52136
  37 6   C  1S          0.05050   0.01565  -0.00354  -0.00850  -0.04025
  38        2S         -0.07301  -0.22364   0.23877   0.34638  -0.05621
  39        2PX         0.11443   0.50410   0.11062  -0.44965  -0.68754
  40        2PY         0.47888  -0.25006   0.11052   0.28297   0.05031
  41        2PZ         0.00000   0.00000   0.00000   0.00000   0.00000
  42        3S         -0.11294   0.74054  -1.05219  -0.48436   0.95109
  43        3PX        -0.11268  -1.73853  -1.32640   0.97736   2.74871
  44        3PY        -0.13399   1.18272  -0.38679  -1.25797   0.72584
  45        3PZ         0.00000   0.00000   0.00000   0.00000   0.00000
  46        4XX         0.02113   0.02071  -0.04419  -0.02517  -0.02771
  47        4YY         0.09362  -0.01056   0.02407   0.04795  -0.03033
  48        4ZZ        -0.04887  -0.03613   0.03354   0.03811   0.05883
  49        4XY        -0.00129   0.05946   0.05665   0.08073   0.09596
  50        4XZ         0.00000   0.00000   0.00000   0.00000   0.00000
  51        4YZ         0.00000   0.00000   0.00000   0.00000   0.00000
  52 7   H  1S          0.11453   0.11036  -0.18059  -0.39718  -0.43240
  53        2S         -0.08771  -1.36608  -0.07100   1.45039   1.52136
  54 8   C  1S         -0.06947   0.00408   0.00469  -0.00366   0.00767
  55        2S         -0.10287  -0.12897  -0.00604   0.36927  -0.54984
  56        2PX         0.01440  -0.60038  -0.78282  -0.42465   0.06787
  57        2PY         0.47495   0.00953   0.10801  -0.01223  -0.05611
  58        2PZ         0.00000   0.00000   0.00000   0.00000   0.00000
  59        3S          0.79604   0.85393   0.06977  -1.35473   1.09459
  60        3PX        -0.06800   1.73283   2.13151   0.78855  -0.89133
  61        3PY        -0.40367   0.21111  -0.18827  -0.32259   0.33719
  62        3PZ         0.00000   0.00000   0.00000   0.00000   0.00000
  63        4XX        -0.05684  -0.00310   0.01488   0.01505  -0.02633
  64        4YY        -0.11475   0.01330   0.00086   0.00495  -0.04827
  65        4ZZ         0.06595  -0.02205  -0.01290   0.02284  -0.01220
  66        4XY        -0.01745  -0.05526  -0.07287  -0.10541  -0.03526
  67        4XZ         0.00000   0.00000   0.00000   0.00000   0.00000
  68        4YZ         0.00000   0.00000   0.00000   0.00000   0.00000
  69 9   H  1S         -0.36438  -0.25324  -0.21960  -0.24771   0.13720
  70        2S         -0.08662   1.03455   1.22946   0.88426  -0.54025
  71 10  H  1S         -0.24325   0.27635   0.31755   0.18756   0.09140
  72        2S         -0.06919  -1.17646  -1.50440  -0.60144   0.25579
                          41        42        43        44        45
                        (BU)--V   (AG)--V   (BU)--V   (AG)--V   (AG)--V
     Eigenvalues --     0.93441   0.94283   0.97019   1.06695   1.09321
   1 1   C  1S          0.02709   0.02373   0.00843  -0.01062  -0.01346
   2        2S          0.18280  -0.36732  -0.86181  -1.07181  -0.59200
   3        2PX        -0.22239   0.01827   0.05062   0.19910  -0.31828
   4        2PY        -0.43155  -0.51936  -0.28571   0.17569  -0.16460
   5        2PZ         0.00000   0.00000   0.00000   0.00000   0.00000
   6        3S         -1.19237   0.03573   1.81704   2.10025   4.42661
   7        3PX         0.27490   0.02330  -0.35393  -0.74167   1.32927
   8        3PY         1.56904   1.25164   0.37897  -0.46098  -1.03730
   9        3PZ         0.00000   0.00000   0.00000   0.00000   0.00000
  10        4XX         0.13345   0.11074   0.02775  -0.06488  -0.07369
  11        4YY        -0.04184  -0.09250  -0.08556  -0.07254   0.08185
  12        4ZZ        -0.07431  -0.07665  -0.06387  -0.01506  -0.06690
  13        4XY         0.02991  -0.01390   0.00472   0.03668  -0.10192
  14        4XZ         0.00000   0.00000   0.00000   0.00000   0.00000
  15        4YZ         0.00000   0.00000   0.00000   0.00000   0.00000
  16 2   H  1S          0.34241   0.45027   0.33633   0.16678  -0.27952
  17        2S         -0.91181  -0.86173  -0.63809  -0.09439  -0.90115
  18 3   H  1S          0.21131   0.49649   0.34951  -0.05459   0.19099
  19        2S         -0.45120  -0.90726  -1.00967  -0.73789  -0.06953
  20 4   C  1S          0.01749  -0.01047  -0.00246   0.01022   0.02025
  21        2S          0.51558  -0.43434  -0.59733   0.72052   0.57947
  22        2PX        -0.05108   0.09519  -0.23171   0.05165   0.03724
  23        2PY        -0.50573  -0.18855   0.17555  -0.09003   0.38526
  24        2PZ         0.00000   0.00000   0.00000   0.00000   0.00000
  25        3S         -0.95762   1.27053   1.11268  -1.92009  -3.02508
  26        3PX         1.08436  -0.32101   0.60846  -0.36871   0.20374
  27        3PY         2.11759   0.96690  -0.40551   0.50169  -3.39283
  28        3PZ         0.00000   0.00000   0.00000   0.00000   0.00000
  29        4XX        -0.03184  -0.07621   0.02134   0.15218   0.00026
  30        4YY         0.14194   0.00009  -0.07871  -0.01008   0.03232
  31        4ZZ        -0.00910   0.01094  -0.01972  -0.00668   0.00780
  32        4XY        -0.00724  -0.00095  -0.03460   0.03781   0.04393
  33        4XZ         0.00000   0.00000   0.00000   0.00000   0.00000
  34        4YZ         0.00000   0.00000   0.00000   0.00000   0.00000
  35 5   H  1S         -0.13241  -0.11834   0.22165   0.15520  -0.31316
  36        2S          0.42471   0.46029  -1.01322   0.66476  -0.30203
  37 6   C  1S         -0.01749  -0.01047   0.00246   0.01022   0.02025
  38        2S         -0.51558  -0.43434   0.59733   0.72052   0.57947
  39        2PX        -0.05108  -0.09519  -0.23171  -0.05165  -0.03724
  40        2PY        -0.50573   0.18855   0.17555   0.09003  -0.38526
  41        2PZ         0.00000   0.00000   0.00000   0.00000   0.00000
  42        3S          0.95762   1.27053  -1.11268  -1.92009  -3.02508
  43        3PX         1.08436   0.32101   0.60846   0.36871  -0.20374
  44        3PY         2.11759  -0.96690  -0.40551  -0.50169   3.39283
  45        3PZ         0.00000   0.00000   0.00000   0.00000   0.00000
  46        4XX         0.03184  -0.07621  -0.02134   0.15218   0.00026
  47        4YY        -0.14194   0.00009   0.07871  -0.01008   0.03232
  48        4ZZ         0.00910   0.01094   0.01972  -0.00668   0.00780
  49        4XY         0.00724  -0.00095   0.03460   0.03781   0.04393
  50        4XZ         0.00000   0.00000   0.00000   0.00000   0.00000
  51        4YZ         0.00000   0.00000   0.00000   0.00000   0.00000
  52 7   H  1S          0.13241  -0.11834  -0.22165   0.15520  -0.31316
  53        2S         -0.42471   0.46029   1.01322   0.66476  -0.30203
  54 8   C  1S         -0.02709   0.02373  -0.00843  -0.01062  -0.01346
  55        2S         -0.18280  -0.36732   0.86181  -1.07181  -0.59200
  56        2PX        -0.22239  -0.01827   0.05062  -0.19910   0.31828
  57        2PY        -0.43155   0.51936  -0.28571  -0.17569   0.16460
  58        2PZ         0.00000   0.00000   0.00000   0.00000   0.00000
  59        3S          1.19237   0.03573  -1.81704   2.10025   4.42661
  60        3PX         0.27490  -0.02330  -0.35393   0.74167  -1.32927
  61        3PY         1.56904  -1.25164   0.37897   0.46098   1.03730
  62        3PZ         0.00000   0.00000   0.00000   0.00000   0.00000
  63        4XX        -0.13345   0.11074  -0.02775  -0.06488  -0.07369
  64        4YY         0.04184  -0.09250   0.08556  -0.07254   0.08185
  65        4ZZ         0.07431  -0.07665   0.06387  -0.01506  -0.06690
  66        4XY        -0.02991  -0.01390  -0.00472   0.03668  -0.10192
  67        4XZ         0.00000   0.00000   0.00000   0.00000   0.00000
  68        4YZ         0.00000   0.00000   0.00000   0.00000   0.00000
  69 9   H  1S         -0.34241   0.45027  -0.33633   0.16678  -0.27952
  70        2S          0.91181  -0.86173   0.63809  -0.09439  -0.90115
  71 10  H  1S         -0.21131   0.49649  -0.34951  -0.05459   0.19099
  72        2S          0.45120  -0.90726   1.00967  -0.73789  -0.06953
                          46        47        48        49        50
                        (BU)--V   (AG)--V   (BU)--V   (AU)--V   (BG)--V
     Eigenvalues --     1.13525   1.31642   1.35322   1.35873   1.43318
   1 1   C  1S          0.02226  -0.00382   0.02853   0.00000   0.00000
   2        2S          0.60034   0.10327   0.75623   0.00000   0.00000
   3        2PX         0.08985  -0.01763  -0.05365   0.00000   0.00000
   4        2PY        -0.04195  -0.11321  -0.05490   0.00000   0.00000
   5        2PZ         0.00000   0.00000   0.00000  -0.09894  -0.09078
   6        3S         -2.45606   0.73948  -3.51613   0.00000   0.00000
   7        3PX        -1.53244  -1.77947   2.11929   0.00000   0.00000
   8        3PY         0.88762  -0.14091   1.31483   0.00000   0.00000
   9        3PZ         0.00000   0.00000   0.00000  -0.00097  -0.02023
  10        4XX         0.06729   0.01042   0.12139   0.00000   0.00000
  11        4YY        -0.00396   0.02801  -0.07053   0.00000   0.00000
  12        4ZZ         0.01231  -0.03803   0.01980   0.00000   0.00000
  13        4XY         0.10056   0.08238  -0.10483   0.00000   0.00000
  14        4XZ         0.00000   0.00000   0.00000   0.15132  -0.10342
  15        4YZ         0.00000   0.00000   0.00000  -0.28372  -0.39436
  16 2   H  1S          0.43800   0.39787  -0.33605   0.00000   0.00000
  17        2S          0.59705   0.46747  -0.43381   0.00000   0.00000
  18 3   H  1S         -0.30640  -0.43982   0.47783   0.00000   0.00000
  19        2S         -0.34152  -0.58135   0.86101   0.00000   0.00000
  20 4   C  1S         -0.02569  -0.00421  -0.06018   0.00000   0.00000
  21        2S         -0.85453   0.25332  -1.10160   0.00000   0.00000
  22        2PX        -0.03059  -0.34278   0.17817   0.00000   0.00000
  23        2PY        -0.00936  -0.11405  -0.29817   0.00000   0.00000
  24        2PZ         0.00000   0.00000   0.00000  -0.01771  -0.12520
  25        3S          2.47769   0.63642   5.98852   0.00000   0.00000
  26        3PX         1.51222   2.45169  -3.32500   0.00000   0.00000
  27        3PY         0.87518  -1.27752   0.73780   0.00000   0.00000
  28        3PZ         0.00000   0.00000   0.00000   0.04812   0.06277
  29        4XX        -0.13251   0.02770   0.03198   0.00000   0.00000
  30        4YY         0.00585   0.02768  -0.05878   0.00000   0.00000
  31        4ZZ         0.03049  -0.03023   0.00189   0.00000   0.00000
  32        4XY         0.06406   0.10967  -0.01389   0.00000   0.00000
  33        4XZ         0.00000   0.00000   0.00000   0.41051  -0.20787
  34        4YZ         0.00000   0.00000   0.00000   0.33379   0.42748
  35 5   H  1S         -0.41117  -0.72917   0.18514   0.00000   0.00000
  36        2S         -0.64179  -1.14256   0.64027   0.00000   0.00000
  37 6   C  1S          0.02569  -0.00421   0.06018   0.00000   0.00000
  38        2S          0.85453   0.25332   1.10160   0.00000   0.00000
  39        2PX        -0.03059   0.34278   0.17817   0.00000   0.00000
  40        2PY        -0.00936   0.11405  -0.29817   0.00000   0.00000
  41        2PZ         0.00000   0.00000   0.00000  -0.01771   0.12520
  42        3S         -2.47769   0.63642  -5.98852   0.00000   0.00000
  43        3PX         1.51222  -2.45169  -3.32500   0.00000   0.00000
  44        3PY         0.87518   1.27752   0.73780   0.00000   0.00000
  45        3PZ         0.00000   0.00000   0.00000   0.04812  -0.06277
  46        4XX         0.13251   0.02770  -0.03198   0.00000   0.00000
  47        4YY        -0.00585   0.02768   0.05878   0.00000   0.00000
  48        4ZZ        -0.03049  -0.03023  -0.00189   0.00000   0.00000
  49        4XY        -0.06406   0.10967   0.01389   0.00000   0.00000
  50        4XZ         0.00000   0.00000   0.00000  -0.41051  -0.20787
  51        4YZ         0.00000   0.00000   0.00000  -0.33379   0.42748
  52 7   H  1S          0.41117  -0.72917  -0.18514   0.00000   0.00000
  53        2S          0.64179  -1.14256  -0.64027   0.00000   0.00000
  54 8   C  1S         -0.02226  -0.00382  -0.02853   0.00000   0.00000
  55        2S         -0.60034   0.10327  -0.75623   0.00000   0.00000
  56        2PX         0.08985   0.01763  -0.05365   0.00000   0.00000
  57        2PY        -0.04195   0.11321  -0.05490   0.00000   0.00000
  58        2PZ         0.00000   0.00000   0.00000  -0.09894   0.09078
  59        3S          2.45606   0.73948   3.51613   0.00000   0.00000
  60        3PX        -1.53244   1.77947   2.11929   0.00000   0.00000
  61        3PY         0.88762   0.14091   1.31483   0.00000   0.00000
  62        3PZ         0.00000   0.00000   0.00000  -0.00097   0.02023
  63        4XX        -0.06729   0.01042  -0.12139   0.00000   0.00000
  64        4YY         0.00396   0.02801   0.07053   0.00000   0.00000
  65        4ZZ        -0.01231  -0.03803  -0.01980   0.00000   0.00000
  66        4XY        -0.10056   0.08238   0.10483   0.00000   0.00000
  67        4XZ         0.00000   0.00000   0.00000  -0.15132  -0.10342
  68        4YZ         0.00000   0.00000   0.00000   0.28372  -0.39436
  69 9   H  1S         -0.43800   0.39787   0.33605   0.00000   0.00000
  70        2S         -0.59705   0.46747   0.43381   0.00000   0.00000
  71 10  H  1S          0.30640  -0.43982  -0.47783   0.00000   0.00000
  72        2S          0.34152  -0.58135  -0.86101   0.00000   0.00000
                          51        52        53        54        55
                        (AU)--V   (BG)--V   (AU)--V   (AG)--V   (AG)--V
     Eigenvalues --     1.52686   1.65306   1.75295   1.75828   1.90263
   1 1   C  1S          0.00000   0.00000   0.00000  -0.00633  -0.01695
   2        2S          0.00000   0.00000   0.00000   0.05350  -0.15919
   3        2PX         0.00000   0.00000   0.00000  -0.13247   0.12111
   4        2PY         0.00000   0.00000   0.00000   0.02314   0.14833
   5        2PZ         0.09044  -0.02718  -0.01032   0.00000   0.00000
   6        3S          0.00000   0.00000   0.00000  -0.47174  -0.05063
   7        3PX         0.00000   0.00000   0.00000   0.09183   0.19658
   8        3PY         0.00000   0.00000   0.00000   0.35656   0.18709
   9        3PZ        -0.07038   0.07248   0.02074   0.00000   0.00000
  10        4XX         0.00000   0.00000   0.00000   0.20979   0.17647
  11        4YY         0.00000   0.00000   0.00000  -0.00689   0.15370
  12        4ZZ         0.00000   0.00000   0.00000  -0.21412  -0.41900
  13        4XY         0.00000   0.00000   0.00000  -0.19866   0.27066
  14        4XZ         0.31578   0.66277   0.61546   0.00000   0.00000
  15        4YZ         0.32821  -0.12027  -0.12685   0.00000   0.00000
  16 2   H  1S          0.00000   0.00000   0.00000   0.05641  -0.37348
  17        2S          0.00000   0.00000   0.00000  -0.11073  -0.09083
  18 3   H  1S          0.00000   0.00000   0.00000  -0.29091   0.09331
  19        2S          0.00000   0.00000   0.00000   0.07797  -0.05895
  20 4   C  1S          0.00000   0.00000   0.00000   0.00459  -0.02900
  21        2S          0.00000   0.00000   0.00000  -0.47466  -0.08964
  22        2PX         0.00000   0.00000   0.00000   0.24539   0.06263
  23        2PY         0.00000   0.00000   0.00000   0.11212  -0.15407
  24        2PZ         0.07468   0.01483  -0.06300   0.00000   0.00000
  25        3S          0.00000   0.00000   0.00000   0.63778   0.48224
  26        3PX         0.00000   0.00000   0.00000  -0.49620  -0.04988
  27        3PY         0.00000   0.00000   0.00000   0.42249   0.47734
  28        3PZ         0.04129  -0.19074  -0.00687   0.00000   0.00000
  29        4XX         0.00000   0.00000   0.00000   0.36759   0.09825
  30        4YY         0.00000   0.00000   0.00000  -0.01144   0.21813
  31        4ZZ         0.00000   0.00000   0.00000  -0.38473  -0.40265
  32        4XY         0.00000   0.00000   0.00000   0.33340  -0.35457
  33        4XZ         0.38851   0.16056  -0.34751   0.00000   0.00000
  34        4YZ        -0.27251   0.10350   0.03295   0.00000   0.00000
  35 5   H  1S          0.00000   0.00000   0.00000   0.09576  -0.31861
  36        2S          0.00000   0.00000   0.00000   0.13683   0.14781
  37 6   C  1S          0.00000   0.00000   0.00000   0.00459  -0.02900
  38        2S          0.00000   0.00000   0.00000  -0.47466  -0.08964
  39        2PX         0.00000   0.00000   0.00000  -0.24539  -0.06263
  40        2PY         0.00000   0.00000   0.00000  -0.11212   0.15407
  41        2PZ         0.07468  -0.01483  -0.06300   0.00000   0.00000
  42        3S          0.00000   0.00000   0.00000   0.63778   0.48224
  43        3PX         0.00000   0.00000   0.00000   0.49620   0.04988
  44        3PY         0.00000   0.00000   0.00000  -0.42249  -0.47734
  45        3PZ         0.04129   0.19074  -0.00687   0.00000   0.00000
  46        4XX         0.00000   0.00000   0.00000   0.36759   0.09825
  47        4YY         0.00000   0.00000   0.00000  -0.01144   0.21813
  48        4ZZ         0.00000   0.00000   0.00000  -0.38473  -0.40265
  49        4XY         0.00000   0.00000   0.00000   0.33340  -0.35457
  50        4XZ        -0.38851   0.16056   0.34751   0.00000   0.00000
  51        4YZ         0.27251   0.10350  -0.03295   0.00000   0.00000
  52 7   H  1S          0.00000   0.00000   0.00000   0.09576  -0.31861
  53        2S          0.00000   0.00000   0.00000   0.13683   0.14781
  54 8   C  1S          0.00000   0.00000   0.00000  -0.00633  -0.01695
  55        2S          0.00000   0.00000   0.00000   0.05350  -0.15919
  56        2PX         0.00000   0.00000   0.00000   0.13247  -0.12111
  57        2PY         0.00000   0.00000   0.00000  -0.02314  -0.14833
  58        2PZ         0.09044   0.02718  -0.01032   0.00000   0.00000
  59        3S          0.00000   0.00000   0.00000  -0.47174  -0.05063
  60        3PX         0.00000   0.00000   0.00000  -0.09183  -0.19658
  61        3PY         0.00000   0.00000   0.00000  -0.35656  -0.18709
  62        3PZ        -0.07038  -0.07248   0.02074   0.00000   0.00000
  63        4XX         0.00000   0.00000   0.00000   0.20979   0.17647
  64        4YY         0.00000   0.00000   0.00000  -0.00689   0.15370
  65        4ZZ         0.00000   0.00000   0.00000  -0.21412  -0.41900
  66        4XY         0.00000   0.00000   0.00000  -0.19866   0.27066
  67        4XZ        -0.31578   0.66277  -0.61546   0.00000   0.00000
  68        4YZ        -0.32821  -0.12027   0.12685   0.00000   0.00000
  69 9   H  1S          0.00000   0.00000   0.00000   0.05641  -0.37348
  70        2S          0.00000   0.00000   0.00000  -0.11073  -0.09083
  71 10  H  1S          0.00000   0.00000   0.00000  -0.29091   0.09331
  72        2S          0.00000   0.00000   0.00000   0.07797  -0.05895
                          56        57        58        59        60
                        (BU)--V   (BU)--V   (BG)--V   (BU)--V   (AG)--V
     Eigenvalues --     1.96415   2.05605   2.09896   2.13443   2.16107
   1 1   C  1S          0.01015  -0.02589   0.00000  -0.02605   0.00072
   2        2S         -0.03345  -0.32878   0.00000  -0.15948  -0.09933
   3        2PX        -0.13656   0.06813   0.00000  -0.07476  -0.01582
   4        2PY         0.11920   0.24440   0.00000   0.08630   0.12187
   5        2PZ         0.00000   0.00000   0.00279   0.00000   0.00000
   6        3S         -0.61150   0.46334   0.00000   0.81779  -0.80441
   7        3PX         0.32998   0.45172   0.00000  -0.07391  -0.20073
   8        3PY         0.10214  -0.23985   0.00000  -0.18178  -0.12936
   9        3PZ         0.00000   0.00000   0.18309   0.00000   0.00000
  10        4XX        -0.28681   0.03382   0.00000   0.55750  -0.62030
  11        4YY         0.16095   0.33303   0.00000  -0.10151   0.41134
  12        4ZZ         0.05742  -0.50011   0.00000  -0.45753   0.09401
  13        4XY        -0.27806   0.23710   0.00000  -0.38581  -0.17872
  14        4XZ         0.00000   0.00000  -0.21385   0.00000   0.00000
  15        4YZ         0.00000   0.00000  -0.37461   0.00000   0.00000
  16 2   H  1S          0.29638  -0.33222   0.00000  -0.09055   0.43411
  17        2S         -0.18514  -0.12031   0.00000   0.02401   0.06360
  18 3   H  1S          0.02536   0.09879   0.00000  -0.60617   0.14100
  19        2S          0.13166   0.08715   0.00000   0.13457   0.03095
  20 4   C  1S         -0.00523  -0.02121   0.00000  -0.02525  -0.01607
  21        2S         -0.16596  -0.45802   0.00000  -0.01270  -0.35900
  22        2PX        -0.11490   0.13572   0.00000  -0.14676   0.00227
  23        2PY        -0.06683  -0.10306   0.00000   0.04833  -0.27550
  24        2PZ         0.00000   0.00000  -0.03670   0.00000   0.00000
  25        3S          0.66784   0.97691   0.00000   0.51860   0.61289
  26        3PX        -0.63683  -0.73594   0.00000  -0.70004  -0.17876
  27        3PY         0.47326  -0.15468   0.00000  -0.72315   0.93361
  28        3PZ         0.00000   0.00000  -0.38049   0.00000   0.00000
  29        4XX        -0.47332  -0.17192   0.00000   0.17929  -0.17789
  30        4YY         0.24511   0.38588   0.00000  -0.04156   0.32340
  31        4ZZ         0.17286  -0.28735   0.00000  -0.12428  -0.25698
  32        4XY         0.36764  -0.12685   0.00000   0.25776   0.05241
  33        4XZ         0.00000   0.00000   0.66248   0.00000   0.00000
  34        4YZ         0.00000   0.00000  -0.11201   0.00000   0.00000
  35 5   H  1S          0.56592  -0.04365   0.00000   0.06626   0.12207
  36        2S          0.14056   0.08699   0.00000   0.06420   0.12006
  37 6   C  1S          0.00523   0.02121   0.00000   0.02525  -0.01607
  38        2S          0.16596   0.45802   0.00000   0.01270  -0.35900
  39        2PX        -0.11490   0.13572   0.00000  -0.14676  -0.00227
  40        2PY        -0.06683  -0.10306   0.00000   0.04833   0.27550
  41        2PZ         0.00000   0.00000   0.03670   0.00000   0.00000
  42        3S         -0.66784  -0.97691   0.00000  -0.51860   0.61289
  43        3PX        -0.63683  -0.73594   0.00000  -0.70004   0.17876
  44        3PY         0.47326  -0.15468   0.00000  -0.72315  -0.93361
  45        3PZ         0.00000   0.00000   0.38049   0.00000   0.00000
  46        4XX         0.47332   0.17192   0.00000  -0.17929  -0.17789
  47        4YY        -0.24511  -0.38588   0.00000   0.04156   0.32340
  48        4ZZ        -0.17286   0.28735   0.00000   0.12428  -0.25698
  49        4XY        -0.36764   0.12685   0.00000  -0.25776   0.05241
  50        4XZ         0.00000   0.00000   0.66248   0.00000   0.00000
  51        4YZ         0.00000   0.00000  -0.11201   0.00000   0.00000
  52 7   H  1S         -0.56592   0.04365   0.00000  -0.06626   0.12207
  53        2S         -0.14056  -0.08699   0.00000  -0.06420   0.12006
  54 8   C  1S         -0.01015   0.02589   0.00000   0.02605   0.00072
[...]
     6   6     0.05  -0.03   0.00    -0.05   0.03   0.00    -0.01   0.02   0.00
     7   1    -0.58   0.32   0.00     0.58  -0.32   0.00     0.18  -0.10   0.00
     8   6     0.00  -0.01   0.00     0.00   0.01   0.00     0.01  -0.05   0.00
     9   1     0.16   0.09   0.00    -0.17  -0.10   0.00     0.33   0.19   0.00
    10   1    -0.13   0.08   0.00     0.11  -0.07   0.00    -0.48   0.29   0.00
                    22                     23                     24
                    AG                     AG                     BU
 Frequencies --  3164.9681              3246.3616              3246.8108
 Red. masses --     1.0676                 1.1156                 1.1153
 Frc consts  --     6.3010                 6.9273                 6.9274
 IR Inten    --     0.0000                 0.0000                33.0669
  Atom  AN      X      Y      Z        X      Y      Z        X      Y      Z
     1   6    -0.01   0.05   0.00    -0.07  -0.01   0.00     0.07   0.01   0.00
     2   1    -0.32  -0.19   0.00     0.48   0.30   0.00    -0.48  -0.30   0.00
     3   1     0.47  -0.28   0.00     0.35  -0.22   0.00    -0.35   0.22   0.00
     4   6     0.02  -0.01   0.00    -0.01   0.00   0.00     0.01  -0.01   0.00
     5   1    -0.19   0.11   0.00     0.06  -0.03   0.00    -0.08   0.04   0.00
     6   6    -0.02   0.01   0.00     0.01   0.00   0.00     0.01  -0.01   0.00
     7   1     0.19  -0.11   0.00    -0.06   0.03   0.00    -0.08   0.04   0.00
     8   6     0.01  -0.05   0.00     0.07   0.01   0.00     0.07   0.01   0.00
     9   1     0.32   0.19   0.00    -0.48  -0.30   0.00    -0.48  -0.30   0.00
    10   1    -0.47   0.28   0.00    -0.35   0.22   0.00    -0.35   0.22   0.00

 -------------------
 - Thermochemistry -
 -------------------
 Temperature   298.150 Kelvin.  Pressure   1.00000 Atm.
 Atom     1 has atomic number  6 and mass  12.00000
 Atom     2 has atomic number  1 and mass   1.00783
 Atom     3 has atomic number  1 and mass   1.00783
 Atom     4 has atomic number  6 and mass  12.00000
 Atom     5 has atomic number  1 and mass   1.00783
 Atom     6 has atomic number  6 and mass  12.00000
 Atom     7 has atomic number  1 and mass   1.00783
 Atom     8 has atomic number  6 and mass  12.00000
 Atom     9 has atomic number  1 and mass   1.00783
 Atom    10 has atomic number  1 and mass   1.00783
 Molecular mass:    54.04695 amu.
 Principal axes and moments of inertia in atomic units:
                           1         2         3
     Eigenvalues --    42.64750 409.41860 452.06609
           X            0.38461   0.92308   0.00000
           Y            0.92308  -0.38461   0.00000
           Z            0.00000   0.00000   1.00000
 This molecule is an asymmetric top.
 Rotational symmetry number  2.
 Rotational temperatures (Kelvin)      2.03092     0.21155     0.19160
 Rotational constants (GHZ):          42.31764     4.40806     3.99221
 Zero-point vibrational energy     224438.3 (Joules/Mol)
                                   53.64204 (Kcal/Mol)
 Warning -- explicit consideration of   4 degrees of freedom as
           vibrations may cause significant error
 Vibrational temperatures:    253.43   427.22   742.60   775.06  1124.18
          (Kelvin)           1305.83  1335.10  1340.80  1443.57  1454.68
                             1531.83  1784.96  1912.78  1916.02  2065.23
                             2153.52  2413.70  2489.42  4527.39  4542.41
                             4551.74  4553.68  4670.78  4671.43
 
 Zero-point correction=                           0.085484 (Hartree/Particle)
 Thermal correction to Energy=                    0.090132
 Thermal correction to Enthalpy=                  0.091076
 Thermal correction to Gibbs Free Energy=         0.059689
 Sum of electronic and zero-point Energies=           -155.906654
 Sum of electronic and thermal Energies=              -155.902006
 Sum of electronic and thermal Enthalpies=            -155.901062
 Sum of electronic and thermal Free Energies=         -155.932449
 
                     E (Thermal)             CV                S
                      KCal/Mol        Cal/Mol-Kelvin    Cal/Mol-Kelvin
 Total                   56.559             15.725             66.060
 Electronic               0.000              0.000              0.000
 Translational            0.889              2.981             37.884
 Rotational               0.889              2.981             22.205
 Vibrational             54.781              9.763              5.971
 Vibration     1          0.628              1.872              2.369
 Vibration     2          0.691              1.679              1.434
 Vibration     3          0.871              1.214              0.619
 Vibration     4          0.894              1.164              0.568
                       Q            Log10(Q)             Ln(Q)
 Total Bot       0.350826D-27        -27.454908        -63.217262
 Total V=0       0.732712D+12         11.864933         27.320018
 Vib (Bot)       0.141264D-38        -38.849968        -89.455357
 Vib (Bot)    1  0.114178D+01          0.057584          0.132591
 Vib (Bot)    2  0.641577D+00         -0.192751         -0.443826
 Vib (Bot)    3  0.313842D+00         -0.503289         -1.158865
 Vib (Bot)    4  0.294470D+00         -0.530959         -1.222578
 Vib (V=0)       0.295035D+01          0.469873          1.081923
 Vib (V=0)    1  0.174646D+01          0.242159          0.557592
 Vib (V=0)    2  0.131340D+01          0.118397          0.272620
 Vib (V=0)    3  0.109034D+01          0.037560          0.086486
 Vib (V=0)    4  0.108027D+01          0.033532          0.077211
 Electronic      0.100000D+01          0.000000          0.000000
 Translational   0.156175D+08          7.193612         16.563904
 Rotational      0.159019D+05          4.201448          9.674191
 ***** Axes restored to original set *****
 -------------------------------------------------------------------
 Center     Atomic                   Forces (Hartrees/Bohr)
 Number     Number              X              Y              Z
 -------------------------------------------------------------------
      1        6          -0.000045828    0.000031628    0.000000000
      2        1           0.000015641   -0.000010550    0.000000000
      3        1           0.000018974   -0.000006121    0.000000000
      4        6           0.000053400    0.000029332    0.000000000
      5        1          -0.000032166   -0.000005247    0.000000000
      6        6          -0.000053400   -0.000029332    0.000000000
      7        1           0.000032166    0.000005247    0.000000000
      8        6           0.000045828   -0.000031628    0.000000000
      9        1          -0.000015641    0.000010550    0.000000000
     10        1          -0.000018974    0.000006121    0.000000000
 -------------------------------------------------------------------
 Cartesian Forces:  Max     0.000053400 RMS     0.000023983

 GradGradGradGradGradGradGradGradGradGradGradGradGradGradGradGradGradGrad
 Berny optimization.
 Internal  Forces:  Max     0.000033030 RMS     0.000013767
 Search for a local minimum.
 Step number   1 out of a maximum of    2
 All quantities printed in internal units (Hartrees-Bohrs-Radians)
 Second derivative matrix not updated -- analytic derivatives used.
 ITU=  0
     Eigenvalues ---    0.00777   0.02349   0.02405   0.02955   0.03222
     Eigenvalues ---    0.03854   0.04046   0.10719   0.10921   0.11231
     Eigenvalues ---    0.11390   0.11956   0.13795   0.15693   0.18861
     Eigenvalues ---    0.34706   0.35175   0.35637   0.36041   0.36125
     Eigenvalues ---    0.36621   0.36663   0.61646   0.62662
 Angle between quadratic step and forces=  24.35 degrees.
 Linear search not attempted -- first point.
 Iteration  1 RMS(Cart)=  0.00005055 RMS(Int)=  0.00000000
 Iteration  2 RMS(Cart)=  0.00000000 RMS(Int)=  0.00000000
 ClnCor:  largest displacement from symmetrization is 2.06D-13 for atom    10.
 Variable       Old X    -DE/DX   Delta X   Delta X   Delta X     New X
                                 (Linear)    (Quad)   (Total)
    R1        2.05183   0.00002   0.00000   0.00005   0.00005   2.05188
    R2        2.05596  -0.00002   0.00000  -0.00005  -0.00005   2.05591
    R3        2.53327  -0.00001   0.00000   0.00000   0.00000   2.53327
    R4        2.06078  -0.00003   0.00000  -0.00010  -0.00010   2.06067
    R5        2.75432  -0.00003   0.00000  -0.00007  -0.00007   2.75425
    R6        2.06078  -0.00003   0.00000  -0.00010  -0.00010   2.06067
    R7        2.53327  -0.00001   0.00000   0.00000   0.00000   2.53327
    R8        2.05183   0.00002   0.00000   0.00005   0.00005   2.05188
    R9        2.05596  -0.00002   0.00000  -0.00005  -0.00005   2.05591
    A1        2.03535   0.00000   0.00000  -0.00002  -0.00002   2.03532
    A2        2.12637  -0.00001   0.00000  -0.00009  -0.00009   2.12629
    A3        2.12146   0.00001   0.00000   0.00011   0.00011   2.12158
    A4        2.08447   0.00001   0.00000   0.00002   0.00002   2.08448
    A5        2.16991  -0.00002   0.00000  -0.00010  -0.00010   2.16981
    A6        2.02881   0.00001   0.00000   0.00008   0.00008   2.02889
    A7        2.02881   0.00001   0.00000   0.00008   0.00008   2.02889
    A8        2.16991  -0.00002   0.00000  -0.00010  -0.00010   2.16981
    A9        2.08447   0.00001   0.00000   0.00002   0.00002   2.08448
   A10        2.12637  -0.00001   0.00000  -0.00009  -0.00009   2.12629
   A11        2.12146   0.00001   0.00000   0.00011   0.00011   2.12158
   A12        2.03535   0.00000   0.00000  -0.00002  -0.00002   2.03532
    D1        0.00000   0.00000   0.00000   0.00000   0.00000   0.00000
    D2        3.14159   0.00000   0.00000   0.00000   0.00000   3.14159
    D3        3.14159   0.00000   0.00000   0.00000   0.00000   3.14159
    D4        0.00000   0.00000   0.00000   0.00000   0.00000   0.00000
    D5        0.00000   0.00000   0.00000   0.00000   0.00000   0.00000
    D6        3.14159   0.00000   0.00000   0.00000   0.00000   3.14159
    D7        3.14159   0.00000   0.00000   0.00000   0.00000   3.14159
    D8        0.00000   0.00000   0.00000   0.00000   0.00000   0.00000
    D9        3.14159   0.00000   0.00000   0.00000   0.00000   3.14159
   D10        0.00000   0.00000   0.00000   0.00000   0.00000   0.00000
   D11        0.00000   0.00000   0.00000   0.00000   0.00000   0.00000
   D12        3.14159   0.00000   0.00000   0.00000   0.00000   3.14159
         Item               Value     Threshold  Converged?
 Maximum Force            0.000033     0.000450     YES
 RMS     Force            0.000014     0.000300     YES
 Maximum Displacement     0.000118     0.001800     YES
 RMS     Displacement     0.000051     0.001200     YES
 Predicted change in Energy=-1.200952D-08
 Optimization completed.
    -- Stationary point found.
                           ----------------------------
                           !   Optimized Parameters   !
                           ! (Angstroms and Degrees)  !
 --------------------------                            --------------------------
 ! Name  Definition              Value          Derivative Info.                !
 --------------------------------------------------------------------------------
 ! R1    R(1,2)                  1.0858         -DE/DX =    0.0                 !
 ! R2    R(1,3)                  1.088          -DE/DX =    0.0                 !
 ! R3    R(1,4)                  1.3406         -DE/DX =    0.0                 !
 ! R4    R(4,5)                  1.0905         -DE/DX =    0.0                 !
 ! R5    R(4,6)                  1.4575         -DE/DX =    0.0                 !
 ! R6    R(6,7)                  1.0905         -DE/DX =    0.0                 !
 ! R7    R(6,8)                  1.3406         -DE/DX =    0.0                 !
 ! R8    R(8,9)                  1.0858         -DE/DX =    0.0                 !
 ! R9    R(8,10)                 1.088          -DE/DX =    0.0                 !
 ! A1    A(2,1,3)              116.6169         -DE/DX =    0.0                 !
 ! A2    A(2,1,4)              121.8321         -DE/DX =    0.0                 !
 ! A3    A(3,1,4)              121.551          -DE/DX =    0.0                 !
 ! A4    A(1,4,5)              119.4312         -DE/DX =    0.0                 !
 ! A5    A(1,4,6)              124.3266         -DE/DX =    0.0                 !
 ! A6    A(5,4,6)              116.2422         -DE/DX =    0.0                 !
 ! A7    A(4,6,7)              116.2422         -DE/DX =    0.0                 !
 ! A8    A(4,6,8)              124.3266         -DE/DX =    0.0                 !
 ! A9    A(7,6,8)              119.4312         -DE/DX =    0.0                 !
 ! A10   A(6,8,9)              121.8321         -DE/DX =    0.0                 !
 ! A11   A(6,8,10)             121.551          -DE/DX =    0.0                 !
 ! A12   A(9,8,10)             116.6169         -DE/DX =    0.0                 !
 ! D1    D(2,1,4,5)              0.0            -DE/DX =    0.0                 !
 ! D2    D(2,1,4,6)            180.0            -DE/DX =    0.0                 !
 ! D3    D(3,1,4,5)            180.0            -DE/DX =    0.0                 !
 ! D4    D(3,1,4,6)              0.0            -DE/DX =    0.0                 !
 ! D5    D(1,4,6,7)              0.0            -DE/DX =    0.0                 !
 ! D6    D(1,4,6,8)            180.0            -DE/DX =    0.0                 !
 ! D7    D(5,4,6,7)            180.0            -DE/DX =    0.0                 !
 ! D8    D(5,4,6,8)              0.0            -DE/DX =    0.0                 !
 ! D9    D(4,6,8,9)            180.0            -DE/DX =    0.0                 !
 ! D10   D(4,6,8,10)             0.0            -DE/DX =    0.0                 !
 ! D11   D(7,6,8,9)              0.0            -DE/DX =    0.0                 !
 ! D12   D(7,6,8,10)           180.0            -DE/DX =    0.0                 !
 --------------------------------------------------------------------------------
 GradGradGradGradGradGradGradGradGradGradGradGradGradGradGradGradGradGrad

 1\1\GINC-STUDENT-LENOVO-S510\Freq\RB3LYP\6-31G(d)\C4H6\STUDENT\02-Mar-
 2021\0\\#N Geom=AllCheck Guess=TCheck SCRF=Check GenChk RB3LYP/6-31G(d
 ) Freq\\Title Card Required\\0,1\C,-0.140620555,-1.8466756265,0.\H,0.4
 798275034,-2.7377219755,0.\H,-1.2173741172,-2.0024731421,0.\C,0.390012
 1854,-0.6156164425,0.\H,1.4743264761,-0.4994815492,0.\C,-0.3900121854,
 0.6156164425,0.\H,-1.4743264761,0.4994815492,0.\C,0.140620555,1.846675
 6265,0.\H,-0.4798275034,2.7377219755,0.\H,1.2173741172,2.0024731421,0.
 \\Version=EM64L-G09RevC.01\State=1-AG\HF=-155.9921383\RMSD=1.984e-09\R
 MSF=2.398e-05\ZeroPoint=0.085484\Thermal=0.0901319\Dipole=0.,0.,0.\Dip
 oleDeriv=0.1266881,0.021029,0.,-0.0428488,-0.1329169,0.,0.,0.,-0.31156
 36,-0.0057236,0.0782441,0.,0.0497397,-0.0579819,0.,0.,0.,0.1348513,-0.
 1081502,-0.0259207,0.,0.0163859,0.0423427,0.,0.,0.,0.1390306,0.1090911
 ,-0.0883105,0.,0.0163532,0.1355998,0.,0.,0.,-0.0722879,-0.1219054,0.01
 49582,0.,-0.03963,0.0129564,0.,0.,0.,0.1099697,0.1090911,-0.0883105,0.
 ,0.0163532,0.1355998,0.,0.,0.,-0.0722879,-0.1219054,0.0149582,0.,-0.03
 963,0.0129564,0.,0.,0.,0.1099697,0.1266881,0.021029,0.,-0.0428488,-0.1
 329168,0.,0.,0.,-0.3115636,-0.0057236,0.0782441,0.,0.0497397,-0.057981
 9,0.,0.,0.,0.1348513,-0.1081502,-0.0259207,0.,0.0163859,0.0423426,0.,0
 .,0.,0.1390306\Polar=39.4048894,6.4536743,77.4582213,0.,0.,15.513984\P
 G=C02H [SGH(C4H6)]\NImag=0\\0.67480558,0.06563716,0.82260827,0.,0.,0.1
 0353931,-0.15731828,0.13840417,0.,0.15705153,0.13383959,-0.24678326,0.
 ,-0.14598111,0.26245018,0.,0.,-0.03247696,0.,0.,0.02209031,-0.33315124
 ,-0.03673275,0.,-0.01228591,-0.00407888,0.,0.35366858,-0.03308150,-0.0
 6463016,0.,0.02359884,0.00631721,0.,0.04281235,0.06089285,0.,0.,-0.034
 04556,0.,0.,0.00219258,0.,0.,0.02255805,-0.19007408,-0.16441091,0.,0.0
 1130834,0.01968509,0.,-0.01090574,-0.03123492,0.,0.68168126,-0.1536307
 0,-0.46599654,0.,-0.01349186,-0.01969525,0.,-0.00107573,0.00044274,0.,
 0.10828673,0.78318862,0.,0.,-0.04899735,0.,0.,0.00430457,0.,0.,0.00472
 102,0.,0.,0.13263981,-0.01037752,-0.00025233,0.,0.00130386,-0.00016537
 ,0.,0.00068611,-0.00172951,0.,-0.32492302,-0.02711848,0.,0.34805079,-0
 .03223266,-0.00074736,0.,0.00024172,0.00109253,0.,-0.00204135,-0.00460
 556,0.,-0.02561317,-0.06079253,0.,0.03012222,0.06350015,0.,0.,0.005283
 16,0.,0.,-0.00720783,0.,0.,0.01142865,0.,0.,-0.04146967,0.,0.,0.027067
 60,0.01638576,-0.00764534,0.,-0.00122073,-0.00449481,0.,0.00096798,-0.
 00190017,0.,-0.16684594,0.07995699,0.,-0.01637383,0.02737050,0.,0.6816
 8126,0.01013083,-0.05215217,0.,-0.00191387,-0.00236790,0.,0.00219934,0
 .00179509,0.,0.07995699,-0.18839377,0.,-0.00334325,0.00397171,0.,0.108
 28673,0.78318862,0.,0.,0.00601551,0.,0.,0.01266639,0.,0.,-0.00784330,0
 .,0.,-0.06503206,0.,0.,0.00299507,0.,0.,0.13263981,0.00108928,-0.00116
 426,0.,0.00042007,0.00013772,0.,0.00063659,0.00098086,0.,-0.01637383,-
 0.00334325,0.,-0.00051233,0.00253240,0.,-0.32492302,-0.02711848,0.,0.3
 4805079,0.00101380,0.00181425,0.,-0.00038498,0.00015802,0.,-0.00100849
 ,-0.00026805,0.,0.02737050,0.00397171,0.,0.00253240,-0.00412315,0.,-0.
 02561317,-0.06079253,0.,0.03012222,0.06350015,0.,0.,-0.00132215,0.,0.,
 -0.00024015,0.,0.,0.00025619,0.,0.,0.00299507,0.,0.,0.00320913,0.,0.,-
 0.04146967,0.,0.,0.02706760,-0.00261675,0.00673491,0.,0.00083604,0.001
 35054,0.,0.00042123,0.00023804,0.,0.01638576,0.01013083,0.,0.00108928,
 0.00101380,0.,-0.19007408,-0.15363070,0.,-0.01037752,-0.03223266,0.,0.
 67480558,0.00673491,0.00673781,0.,-0.00036167,-0.00075889,0.,-0.000208
 98,-0.00009194,0.,-0.00764534,-0.05215217,0.,-0.00116426,0.00181425,0.
 ,-0.16441091,-0.46599654,0.,-0.00025233,-0.00074736,0.,0.06563716,0.82
 260827,0.,0.,0.00199235,0.,0.,-0.00015026,0.,0.,0.00016195,0.,0.,0.006
 01551,0.,0.,-0.00132215,0.,0.,-0.04899735,0.,0.,0.00528316,0.,0.,0.103
 53931,0.00083604,-0.00036167,0.,-0.00008359,-0.00020116,0.,-0.00001132
 ,0.00008993,0.,-0.00122073,-0.00191387,0.,0.00042007,-0.00038498,0.,0.
 01130834,-0.01349186,0.,0.00130386,0.00024172,0.,-0.15731828,0.1384041
 7,0.,0.15705153,0.00135054,-0.00075889,0.,-0.00020116,-0.00044037,0.,-
 0.00009161,0.00002775,0.,-0.00449481,-0.00236790,0.,0.00013772,0.00015
 802,0.,0.01968509,-0.01969525,0.,-0.00016537,0.00109253,0.,0.13383959,
 -0.24678326,0.,-0.14598111,0.26245018,0.,0.,-0.00015026,0.,0.,-0.00144
 519,0.,0.,0.00026656,0.,0.,0.01266639,0.,0.,-0.00024015,0.,0.,0.004304
 57,0.,0.,-0.00720783,0.,0.,-0.03247696,0.,0.,0.02209031,0.00042123,-0.
 00020898,0.,-0.00001132,-0.00009161,0.,-0.00002627,0.00022609,0.,0.000
 96798,0.00219934,0.,0.00063659,-0.00100849,0.,-0.01090574,-0.00107573,
 0.,0.00068611,-0.00204135,0.,-0.33315124,-0.03673275,0.,-0.01228591,-0
 .00407888,0.,0.35366858,0.00023804,-0.00009194,0.,0.00008993,0.0000277
 5,0.,0.00022609,0.00012007,0.,-0.00190017,0.00179509,0.,0.00098086,-0.
 00026805,0.,-0.03123492,0.00044274,0.,-0.00172951,-0.00460556,0.,-0.03
 308150,-0.06463016,0.,0.02359884,0.00631721,0.,0.04281235,0.06089285,0
 .,0.,0.00016195,0.,0.,0.00026656,0.,0.,0.00030386,0.,0.,-0.00784330,0.
 ,0.,0.00025619,0.,0.,0.00472102,0.,0.,0.01142865,0.,0.,-0.03404556,0.,
 0.,0.00219258,0.,0.,0.02255805\\0.00004583,-0.00003163,0.,-0.00001564,
 0.00001055,0.,-0.00001897,0.00000612,0.,-0.00005340,-0.00002933,0.,0.0
 0003217,0.00000525,0.,0.00005340,0.00002933,0.,-0.00003217,-0.00000525
 ,0.,-0.00004583,0.00003163,0.,0.00001564,-0.00001055,0.,0.00001897,-0.
 00000612,0.\\\@


 IN THE LONG RUN, DIGGING FOR TRUTH HAS ALWAYS PROVED NOT ONLY 
 MORE INTERESTING BUT MORE PROFITABLE THAN DIGGING FOR GOLD.

                             -- GEORGE R. HARRISON
 Job cpu time:  0 days  0 hours  0 minutes 13.4 seconds.
 File lengths (MBytes):  RWF=      9 Int=      0 D2E=      0 Chk=      2 Scr=      1
 Normal termination of Gaussian 09 at Tue Mar  2 11:18:11 2021.
