 Entering Gaussian System, Link 0=g09
 Input=buta_cis.com
 Output=buta_cis.log
 Initial command:
 /home/student/g09/l1.exe /home/student/Aniruddha_1811022/Lab_3/Gau-6901.inp -scrdir=/home/student/Aniruddha_1811022/Lab_3/
 Entering Link 1 = /home/student/g09/l1.exe PID=      6905.
  
 Copyright (c) 1988,1990,1992,1993,1995,1998,2003,2009,2011,
            Gaussian, Inc.  All Rights Reserved.
  
 This is part of the Gaussian(R) 09 program.  It is based on
 the Gaussian(R) 03 system (copyright 2003, Gaussian, Inc.),
 the Gaussian(R) 98 system (copyright 1998, Gaussian, Inc.),
 the Gaussian(R) 94 system (copyright 1995, Gaussian, Inc.),
 the Gaussian 92(TM) system (copyright 1992, Gaussian, Inc.),
 the Gaussian 90(TM) system (copyright 1990, Gaussian, Inc.),
 the Gaussian 88(TM) system (copyright 1988, Gaussian, Inc.),
 the Gaussian 86(TM) system (copyright 1986, Carnegie Mellon
 University), and the Gaussian 82(TM) system (copyright 1983,
 Carnegie Mellon University). Gaussian is a federally registered
 trademark of Gaussian, Inc.
  
 This software contains proprietary and confidential information,
 including trade secrets, belonging to Gaussian, Inc.
  
 This software is provided under written license and may be
 used, copied, transmitted, or stored only in accord with that
 written license.
  
 The following legend is applicable only to US Government
 contracts under FAR:
  
                    RESTRICTED RIGHTS LEGEND
  
 Use, reproduction and disclosure by the US Government is
 subject to restrictions as set forth in subparagraphs (a)
 and (c) of the Commercial Computer Software - Restricted
 Rights clause in FAR 52.227-19.
  
 Gaussian, Inc.
 340 Quinnipiac St., Bldg. 40, Wallingford CT 06492
  
  
 ---------------------------------------------------------------
 Warning -- This program may not be used in any manner that
 competes with the business of Gaussian, Inc. or will provide
 assistance to any competitor of Gaussian, Inc.  The licensee
 of this program is prohibited from giving any competitor of
 Gaussian, Inc. access to this program.  By using this program,
 the user acknowledges that Gaussian, Inc. is engaged in the
 business of creating and licensing software in the field of
 computational chemistry and represents and warrants to the
 licensee that it is not a competitor of Gaussian, Inc. and that
 it will not use this program in any manner prohibited above.
 ---------------------------------------------------------------
  

 Cite this work as:
 Gaussian 09, Revision C.01,
 M. J. Frisch, G. W. Trucks, H. B. Schlegel, G. E. Scuseria, 
 M. A. Robb, J. R. Cheeseman, G. Scalmani, V. Barone, B. Mennucci, 
 G. A. Petersson, H. Nakatsuji, M. Caricato, X. Li, H. P. Hratchian, 
 A. F. Izmaylov, J. Bloino, G. Zheng, J. L. Sonnenberg, M. Hada, 
 M. Ehara, K. Toyota, R. Fukuda, J. Hasegawa, M. Ishida, T. Nakajima, 
 Y. Honda, O. Kitao, H. Nakai, T. Vreven, J. A. Montgomery, Jr., 
 J. E. Peralta, F. Ogliaro, M. Bearpark, J. J. Heyd, E. Brothers, 
 K. N. Kudin, V. N. Staroverov, T. Keith, R. Kobayashi, J. Normand, 
 K. Raghavachari, A. Rendell, J. C. Burant, S. S. Iyengar, J. Tomasi, 
 M. Cossi, N. Rega, J. M. Millam, M. Klene, J. E. Knox, J. B. Cross, 
 V. Bakken, C. Adamo, J. Jaramillo, R. Gomperts, R. E. Stratmann, 
 O. Yazyev, A. J. Austin, R. Cammi, C. Pomelli, J. W. Ochterski, 
 R. L. Martin, K. Morokuma, V. G. Zakrzewski, G. A. Voth, 
 P. Salvador, J. J. Dannenberg, S. Dapprich, A. D. Daniels, 
 O. Farkas, J. B. Foresman, J. V. Ortiz, J. Cioslowski, 
 and D. J. Fox, Gaussian, Inc., Wallingford CT, 2010.
 
 ******************************************
 Gaussian 09:  EM64L-G09RevC.01 23-Sep-2011
                 2-Mar-2021 
 ******************************************
 %chk=buta_cis.chk
 ----------------------------------------
 # b3lyp/6-31g geom=connectivity opt freq
 ----------------------------------------
 1/14=-1,18=20,19=15,26=3,38=1,57=2/1,3;
 2/9=110,12=2,17=6,18=5,40=1/2;
 3/5=1,6=6,11=2,16=1,25=1,30=1,71=1,74=-5/1,2,3;
 4//1;
 5/5=2,38=5/2;
 6/7=2,8=2,9=2,10=2,28=1/1;
 7//1,2,3,16;
 1/14=-1,18=20,19=15/3(2);
 2/9=110/2;
 99//99;
 2/9=110/2;
 3/5=1,6=6,11=2,16=1,25=1,30=1,71=1,74=-5/1,2,3;
 4/5=5,16=3/1;
 5/5=2,38=5/2;
 7//1,2,3,16;
 1/14=-1,18=20,19=15/3(-5);
 2/9=110/2;
 6/7=2,8=2,9=2,10=2,19=2,28=1/1;
 99/9=1/99;
 -------------------
 Title Card Required
 -------------------
 Charge =  0 Multiplicity = 1
 Symbolic Z-Matrix:
 C                    -1.44761   0.        0.54874 
 H                    -0.91493   0.        1.47673 
 H                    -2.51761   0.        0.54817 
 C                    -0.77171   0.       -0.62588 
 H                    -1.30438   0.       -1.55387 
 C                     0.77171   0.       -0.62588 
 H                     1.30438   0.       -1.55387 
 C                     1.44761   0.        0.54874 
 H                     0.91493   0.        1.47673 
 H                     2.51761   0.        0.54817 
 

 GradGradGradGradGradGradGradGradGradGradGradGradGradGradGradGradGradGrad
 Berny optimization.
 Initialization pass.
                           ----------------------------
                           !    Initial Parameters    !
                           ! (Angstroms and Degrees)  !
 --------------------------                            --------------------------
 ! Name  Definition              Value          Derivative Info.                !
 --------------------------------------------------------------------------------
 ! R1    R(1,2)                  1.07           estimate D2E/DX2                !
 ! R2    R(1,3)                  1.07           estimate D2E/DX2                !
 ! R3    R(1,4)                  1.3552         estimate D2E/DX2                !
 ! R4    R(4,5)                  1.07           estimate D2E/DX2                !
 ! R5    R(4,6)                  1.5434         estimate D2E/DX2                !
 ! R6    R(6,7)                  1.07           estimate D2E/DX2                !
 ! R7    R(6,8)                  1.3552         estimate D2E/DX2                !
 ! R8    R(8,9)                  1.07           estimate D2E/DX2                !
 ! R9    R(8,10)                 1.07           estimate D2E/DX2                !
 ! A1    A(2,1,3)              119.8865         estimate D2E/DX2                !
 ! A2    A(2,1,4)              120.2269         estimate D2E/DX2                !
 ! A3    A(3,1,4)              119.8865         estimate D2E/DX2                !
 ! A4    A(1,4,5)              120.2269         estimate D2E/DX2                !
 ! A5    A(1,4,6)              119.9168         estimate D2E/DX2                !
 ! A6    A(5,4,6)              119.8562         estimate D2E/DX2                !
 ! A7    A(4,6,7)              119.8562         estimate D2E/DX2                !
 ! A8    A(4,6,8)              119.9168         estimate D2E/DX2                !
 ! A9    A(7,6,8)              120.2269         estimate D2E/DX2                !
 ! A10   A(6,8,9)              120.2269         estimate D2E/DX2                !
 ! A11   A(6,8,10)             119.8865         estimate D2E/DX2                !
 ! A12   A(9,8,10)             119.8865         estimate D2E/DX2                !
 ! D1    D(2,1,4,5)            180.0            estimate D2E/DX2                !
 ! D2    D(2,1,4,6)              0.0            estimate D2E/DX2                !
 ! D3    D(3,1,4,5)              0.0            estimate D2E/DX2                !
 ! D4    D(3,1,4,6)            180.0            estimate D2E/DX2                !
 ! D5    D(1,4,6,7)            180.0            estimate D2E/DX2                !
 ! D6    D(1,4,6,8)              0.0            estimate D2E/DX2                !
 ! D7    D(5,4,6,7)              0.0            estimate D2E/DX2                !
 ! D8    D(5,4,6,8)            180.0            estimate D2E/DX2                !
 ! D9    D(4,6,8,9)              0.0            estimate D2E/DX2                !
 ! D10   D(4,6,8,10)           180.0            estimate D2E/DX2                !
 ! D11   D(7,6,8,9)            180.0            estimate D2E/DX2                !
 ! D12   D(7,6,8,10)             0.0            estimate D2E/DX2                !
 --------------------------------------------------------------------------------
 Trust Radius=3.00D-01 FncErr=1.00D-07 GrdErr=1.00D-06
 Number of steps in this run=     43 maximum allowed number of steps=    100.
 GradGradGradGradGradGradGradGradGradGradGradGradGradGradGradGradGradGrad

                          Input orientation:                          
 ---------------------------------------------------------------------
 Center     Atomic      Atomic             Coordinates (Angstroms)
 Number     Number       Type             X           Y           Z
 ---------------------------------------------------------------------
      1          6           0       -1.447606    0.000000    0.548740
      2          1           0       -0.914933    0.000000    1.476727
      3          1           0       -2.517606    0.000000    0.548175
      4          6           0       -0.771711    0.000000   -0.625880
      5          1           0       -1.304385    0.000000   -1.553867
      6          6           0        0.771711    0.000000   -0.625880
      7          1           0        1.304385    0.000000   -1.553867
      8          6           0        1.447606    0.000000    0.548740
      9          1           0        0.914933    0.000000    1.476727
     10          1           0        2.517606    0.000000    0.548175
 ---------------------------------------------------------------------
                    Distance matrix (angstroms):
                    1          2          3          4          5
     1  C    0.000000
     2  H    1.070000   0.000000
     3  H    1.070000   1.852234   0.000000
     4  C    1.355200   2.107479   2.103938   0.000000
     5  H    2.107479   3.055514   2.427032   1.070000   0.000000
     6  C    2.510996   2.695501   3.492565   1.543422   2.274056
     7  H    3.463295   3.756310   4.361902   2.274056   2.608769
     8  C    2.895213   2.538258   3.965213   2.510996   3.463295
     9  H    2.538258   1.829866   3.555915   2.695501   3.756310
    10  H    3.965213   3.555915   5.035212   3.492565   4.361902
                    6          7          8          9         10
     6  C    0.000000
     7  H    1.070000   0.000000
     8  C    1.355200   2.107479   0.000000
     9  H    2.107479   3.055514   1.070000   0.000000
    10  H    2.103938   2.427032   1.070000   1.852234   0.000000
 Stoichiometry    C4H6
 Framework group  C2V[SGV(C4H6)]
 Deg. of freedom     9
 Full point group                 C2V     NOp   4
 Largest Abelian subgroup         C2V     NOp   4
 Largest concise Abelian subgroup C2      NOp   2
                         Standard orientation:                         
 ---------------------------------------------------------------------
 Center     Atomic      Atomic             Coordinates (Angstroms)
 Number     Number       Type             X           Y           Z
 ---------------------------------------------------------------------
      1          6           0        0.000000    1.447606   -0.548194
      2          1           0        0.000000    0.914933   -1.476180
      3          1           0        0.000000    2.517606   -0.547628
      4          6           0        0.000000    0.771711    0.626426
      5          1           0        0.000000    1.304385    1.554413
      6          6           0        0.000000   -0.771711    0.626426
      7          1           0        0.000000   -1.304385    1.554413
      8          6           0        0.000000   -1.447606   -0.548194
      9          1           0        0.000000   -0.914933   -1.476180
     10          1           0        0.000000   -2.517606   -0.547628
 ---------------------------------------------------------------------
 Rotational constants (GHZ):     19.0844415      6.1273581      4.6381936
 Standard basis: 6-31G (6D, 7F)
 There are    20 symmetry adapted basis functions of A1  symmetry.
 There are     4 symmetry adapted basis functions of A2  symmetry.
 There are     4 symmetry adapted basis functions of B1  symmetry.
 There are    20 symmetry adapted basis functions of B2  symmetry.
 Integral buffers will be    131072 words long.
 Raffenetti 2 integral format.
 Two-electron integral symmetry is turned on.
    48 basis functions,   112 primitive gaussians,    48 cartesian basis functions
    15 alpha electrons       15 beta electrons
       nuclear repulsion energy       104.7357359274 Hartrees.
 NAtoms=   10 NActive=   10 NUniq=    5 SFac= 4.00D+00 NAtFMM=   60 NAOKFM=F Big=F
 One-electron integrals computed using PRISM.
 NBasis=    48 RedAO= T  NBF=    20     4     4    20
 NBsUse=    48 1.00D-06 NBFU=    20     4     4    20
 Harris functional with IExCor=  402 diagonalized for initial guess.
 ExpMin= 1.61D-01 ExpMax= 3.05D+03 ExpMxC= 4.57D+02 IAcc=1 IRadAn=         1 AccDes= 0.00D+00
 HarFok:  IExCor=  402 AccDes= 0.00D+00 IRadAn=         1 IDoV= 1
 ScaDFX=  1.000000  1.000000  1.000000  1.000000
 FoFCou: FMM=F IPFlag=           0 FMFlag=      100000 FMFlg1=           0
         NFxFlg=           0 DoJE=T BraDBF=F KetDBF=T FulRan=T
         Omega=  0.000000  0.000000  1.000000  0.000000  0.000000 ICntrl=     500 IOpCl=  0
         NMat0=    1 NMatS0=    1 NMatT0=    0 NMatD0=    1 NMtDS0=    0 NMtDT0=    0
         I1Cent=           4 NGrid=           0.
 Petite list used in FoFCou.
 Initial guess orbital symmetries:
       Occupied  (B2) (A1) (B2) (A1) (A1) (B2) (A1) (B2) (A1) (A1)
                 (B2) (B2) (A1) (B1) (A2)
       Virtual   (B1) (A2) (A1) (A1) (B2) (B2) (B2) (A1) (A1) (B2)
                 (B2) (A1) (B1) (B2) (A1) (A2) (B1) (A1) (A1) (B2)
                 (A2) (B2) (A1) (B2) (A1) (B2) (A1) (B2) (A1) (B2)
                 (B2) (A1) (B2)
 The electronic state of the initial guess is 1-A1.
 Requested convergence on RMS density matrix=1.00D-08 within 128 cycles.
 Requested convergence on MAX density matrix=1.00D-06.
 Requested convergence on             energy=1.00D-06.
 No special actions if energy rises.
 Keep R1 ints in memory in canonical form, NReq=1668728.
 Integral accuracy reduced to 1.0D-05 until final iterations.
 Initial convergence to 1.0D-05 achieved.  Increase integral accuracy.
 SCF Done:  E(RB3LYP) =  -155.944223720     A.U. after   12 cycles
             Convg  =    0.3008D-08             -V/T =  2.0060

 **********************************************************************

            Population analysis using the SCF density.

 **********************************************************************

 Orbital symmetries:
       Occupied  (A1) (B2) (B2) (A1) (A1) (B2) (A1) (B2) (A1) (A1)
                 (B2) (B2) (A1) (B1) (A2)
       Virtual   (B1) (A2) (A1) (A1) (B2) (B2) (A1) (B2) (A1) (B2)
                 (B2) (A1) (B1) (B2) (A1) (A2) (B1) (A1) (A2) (A1)
                 (B2) (B2) (A1) (B2) (A1) (B2) (A1) (B2) (A1) (B2)
                 (B2) (A1) (B2)
 The electronic state is 1-A1.
 Alpha  occ. eigenvalues --  -10.19288 -10.19279 -10.17467 -10.17465  -0.79823
 Alpha  occ. eigenvalues --   -0.72493  -0.61385  -0.53345  -0.49783  -0.43614
 Alpha  occ. eigenvalues --   -0.41613  -0.36919  -0.35025  -0.31216  -0.22640
 Alpha virt. eigenvalues --   -0.02873   0.08122   0.11515   0.11581   0.15828
 Alpha virt. eigenvalues --    0.18052   0.21037   0.22652   0.29250   0.33176
 Alpha virt. eigenvalues --    0.43389   0.48985   0.53270   0.58620   0.58801
 Alpha virt. eigenvalues --    0.60821   0.63621   0.65833   0.68378   0.70404
 Alpha virt. eigenvalues --    0.71285   0.87037   0.88171   0.91521   0.95796
 Alpha virt. eigenvalues --    0.97439   1.00295   1.03451   1.11380   1.11745
 Alpha virt. eigenvalues --    1.19141   1.29711   1.49711
          Condensed to atoms (all electrons):
              1          2          3          4          5          6
     1  C    5.028241   0.373306   0.367788   0.629466  -0.051899  -0.046996
     2  H    0.373306   0.578478  -0.037188  -0.038392   0.005549  -0.015474
     3  H    0.367788  -0.037188   0.571955  -0.028093  -0.006204   0.004606
     4  C    0.629466  -0.038392  -0.028093   4.846635   0.366160   0.405122
     5  H   -0.051899   0.005549  -0.006204   0.366160   0.599298  -0.036144
     6  C   -0.046996  -0.015474   0.004606   0.405122  -0.036144   4.846635
     7  H    0.004449   0.000099  -0.000139  -0.036144  -0.002848   0.366160
     8  C   -0.020826   0.003130   0.000344  -0.046996   0.004449   0.629466
     9  H    0.003130   0.005389  -0.000088  -0.015474   0.000099  -0.038392
    10  H    0.000344  -0.000088  -0.000006   0.004606  -0.000139  -0.028093
              7          8          9         10
     1  C    0.004449  -0.020826   0.003130   0.000344
     2  H    0.000099   0.003130   0.005389  -0.000088
     3  H   -0.000139   0.000344  -0.000088  -0.000006
     4  C   -0.036144  -0.046996  -0.015474   0.004606
     5  H   -0.002848   0.004449   0.000099  -0.000139
     6  C    0.366160   0.629466  -0.038392  -0.028093
     7  H    0.599298  -0.051899   0.005549  -0.006204
     8  C   -0.051899   5.028241   0.373306   0.367788
     9  H    0.005549   0.373306   0.578478  -0.037188
    10  H   -0.006204   0.367788  -0.037188   0.571955
 Mulliken atomic charges:
              1
     1  C   -0.287002
     2  H    0.125191
     3  H    0.127025
     4  C   -0.086892
     5  H    0.121678
     6  C   -0.086892
     7  H    0.121678
     8  C   -0.287002
     9  H    0.125191
    10  H    0.127025
 Sum of Mulliken atomic charges =   0.00000
 Mulliken charges with hydrogens summed into heavy atoms:
              1
     1  C   -0.034787
     4  C    0.034787
     6  C    0.034787
     8  C   -0.034787
 Sum of Mulliken charges with hydrogens summed into heavy atoms =   0.00000
 Electronic spatial extent (au):  <R**2>=            298.0345
 Charge=              0.0000 electrons
 Dipole moment (field-independent basis, Debye):
    X=              0.0000    Y=              0.0000    Z=              0.1473  Tot=              0.1473
 Quadrupole moment (field-independent basis, Debye-Ang):
   XX=            -28.1097   YY=            -22.9207   ZZ=            -22.4859
   XY=              0.0000   XZ=              0.0000   YZ=              0.0000
 Traceless Quadrupole moment (field-independent basis, Debye-Ang):
   XX=             -3.6043   YY=              1.5847   ZZ=              2.0195
   XY=              0.0000   XZ=              0.0000   YZ=              0.0000
 Octapole moment (field-independent basis, Debye-Ang**2):
  XXX=              0.0000  YYY=              0.0000  ZZZ=              0.9736  XYY=              0.0000
  XXY=              0.0000  XXZ=              0.1380  XZZ=              0.0000  YZZ=              0.0000
  YYZ=              0.7504  XYZ=              0.0000
 Hexadecapole moment (field-independent basis, Debye-Ang**3):
 XXXX=            -29.2045 YYYY=           -244.5579 ZZZZ=           -102.7894 XXXY=              0.0000
 XXXZ=              0.0000 YYYX=              0.0000 YYYZ=              0.0000 ZZZX=              0.0000
 ZZZY=              0.0000 XXYY=            -55.0849 XXZZ=            -24.2599 YYZZ=            -60.7009
 XXYZ=              0.0000 YYXZ=              0.0000 ZZXY=              0.0000
 N-N= 1.047357359274D+02 E-N=-5.704339964050D+02  KE= 1.550078703618D+02
 Symmetry A1   KE= 7.629220279576D+01
 Symmetry A2   KE= 2.275991074220D+00
 Symmetry B1   KE= 1.950262119920D+00
 Symmetry B2   KE= 7.448941437194D+01
 Calling FoFJK, ICntrl=      2127 FMM=F ISym2X=1 I1Cent= 0 IOpClX= 0 NMat=1 NMatS=1 NMatT=0.
 ***** Axes restored to original set *****
 -------------------------------------------------------------------
 Center     Atomic                   Forces (Hartrees/Bohr)
 Number     Number              X              Y              Z
 -------------------------------------------------------------------
      1        6           0.005119473    0.000000000   -0.031217645
      2        1          -0.003250012    0.000000000    0.010910203
      3        1          -0.010576416    0.000000000    0.004614947
      4        6           0.033977555    0.000000000    0.027539700
      5        1          -0.002460103    0.000000000   -0.011847206
      6        6          -0.033977555    0.000000000    0.027539700
      7        1           0.002460103    0.000000000   -0.011847206
      8        6          -0.005119473    0.000000000   -0.031217645
      9        1           0.003250012    0.000000000    0.010910203
     10        1           0.010576416    0.000000000    0.004614947
 -------------------------------------------------------------------
 Cartesian Forces:  Max     0.033977555 RMS     0.014883596

 GradGradGradGradGradGradGradGradGradGradGradGradGradGradGradGradGradGrad
 Berny optimization.
 Internal  Forces:  Max     0.033676546 RMS     0.012361735
 Search for a local minimum.
 Step number   1 out of a maximum of   43
 All quantities printed in internal units (Hartrees-Bohrs-Radians)
 Mixed Optimization -- RFO/linear search
 Second derivative matrix not updated -- first step.
 ITU=  0
     Eigenvalues ---    0.00230   0.01460   0.01460   0.02681   0.02681
     Eigenvalues ---    0.02681   0.02681   0.16000   0.16000   0.16000
     Eigenvalues ---    0.16000   0.16000   0.16000   0.22000   0.22000
     Eigenvalues ---    0.28218   0.37230   0.37230   0.37230   0.37230
     Eigenvalues ---    0.37230   0.37230   0.53930   0.53930
 RFO step:  Lambda=-1.96647226D-02 EMin= 2.30000000D-03
 Linear search not attempted -- first point.
 Iteration  1 RMS(Cart)=  0.18952315 RMS(Int)=  0.01042049
 Iteration  2 RMS(Cart)=  0.01753563 RMS(Int)=  0.00009595
 Iteration  3 RMS(Cart)=  0.00020573 RMS(Int)=  0.00000001
 Iteration  4 RMS(Cart)=  0.00000002 RMS(Int)=  0.00000000
 ClnCor:  largest displacement from symmetrization is 6.90D-11 for atom     7.
 Variable       Old X    -DE/DX   Delta X   Delta X   Delta X     New X
                                 (Linear)    (Quad)   (Total)
    R1        2.02201   0.00784   0.00000   0.02001   0.02001   2.04202
    R2        2.02201   0.01057   0.00000   0.02698   0.02698   2.04898
    R3        2.56096  -0.00926   0.00000  -0.01656  -0.01656   2.54439
    R4        2.02201   0.01150   0.00000   0.02934   0.02934   2.05135
    R5        2.91665  -0.02281   0.00000  -0.07557  -0.07557   2.84107
    R6        2.02201   0.01150   0.00000   0.02934   0.02934   2.05135
    R7        2.56096  -0.00926   0.00000  -0.01656  -0.01656   2.54439
    R8        2.02201   0.00784   0.00000   0.02001   0.02001   2.04202
    R9        2.02201   0.01057   0.00000   0.02698   0.02698   2.04898
    A1        2.09241  -0.00867   0.00000  -0.04828  -0.04828   2.04413
    A2        2.09836   0.00801   0.00000   0.04457   0.04457   2.14292
    A3        2.09241   0.00067   0.00000   0.00372   0.00372   2.09613
    A4        2.09836  -0.01303   0.00000  -0.04908  -0.04908   2.04928
    A5        2.09294   0.03368   0.00000   0.14052   0.14052   2.23346
    A6        2.09189  -0.02064   0.00000  -0.09144  -0.09144   2.00045
    A7        2.09189  -0.02064   0.00000  -0.09144  -0.09144   2.00045
    A8        2.09294   0.03368   0.00000   0.14052   0.14052   2.23346
    A9        2.09836  -0.01303   0.00000  -0.04908  -0.04908   2.04928
   A10        2.09836   0.00801   0.00000   0.04457   0.04457   2.14292
   A11        2.09241   0.00067   0.00000   0.00372   0.00372   2.09613
   A12        2.09241  -0.00867   0.00000  -0.04828  -0.04828   2.04413
    D1        3.14159   0.00000   0.00000   0.00000   0.00000   3.14159
    D2        0.00000   0.00000   0.00000   0.00000   0.00000   0.00000
    D3        0.00000   0.00000   0.00000   0.00000   0.00000   0.00000
    D4        3.14159   0.00000   0.00000   0.00000   0.00000   3.14159
    D5        3.14159   0.00000   0.00000   0.00000   0.00000   3.14159
    D6        0.00000   0.00000   0.00000   0.00000   0.00000   0.00000
    D7        0.00000   0.00000   0.00000   0.00000   0.00000   0.00000
    D8        3.14159   0.00000   0.00000   0.00000   0.00000   3.14159
    D9        0.00000   0.00000   0.00000   0.00000   0.00000   0.00000
   D10        3.14159   0.00000   0.00000   0.00000   0.00000   3.14159
   D11        3.14159   0.00000   0.00000   0.00000   0.00000   3.14159
   D12        0.00000   0.00000   0.00000   0.00000   0.00000   0.00000
         Item               Value     Threshold  Converged?
 Maximum Force            0.033677     0.000450     NO 
 RMS     Force            0.012362     0.000300     NO 
 Maximum Displacement     0.583621     0.001800     NO 
 RMS     Displacement     0.200464     0.001200     NO 
 Predicted change in Energy=-1.061825D-02
 GradGradGradGradGradGradGradGradGradGradGradGradGradGradGradGradGradGrad

                          Input orientation:                          
 ---------------------------------------------------------------------
 Center     Atomic      Atomic             Coordinates (Angstroms)
 Number     Number       Type             X           Y           Z
 ---------------------------------------------------------------------
      1          6           0       -1.580066    0.000000    0.526394
      2          1           0       -1.223772    0.000000    1.546556
      3          1           0       -2.654134    0.000000    0.377962
      4          6           0       -0.751716    0.000000   -0.535077
      5          1           0       -1.203894    0.000000   -1.521941
      6          6           0        0.751716    0.000000   -0.535077
      7          1           0        1.203894    0.000000   -1.521941
      8          6           0        1.580066    0.000000    0.526394
      9          1           0        1.223772    0.000000    1.546556
     10          1           0        2.654134    0.000000    0.377962
 ---------------------------------------------------------------------
                    Distance matrix (angstroms):
                    1          2          3          4          5
     1  C    0.000000
     2  H    1.080590   0.000000
     3  H    1.084275   1.847037   0.000000
     4  C    1.346434   2.134486   2.110174   0.000000
     5  H    2.082590   3.068561   2.390152   1.085525   0.000000
     6  C    2.562017   2.869799   3.526111   1.503432   2.190505
     7  H    3.456315   3.912702   4.300467   2.190505   2.407789
     8  C    3.160133   2.983662   4.236801   2.562017   3.456315
     9  H    2.983662   2.447544   4.050156   2.869799   3.912702
    10  H    4.236801   4.050156   5.308268   3.526111   4.300467
                    6          7          8          9         10
     6  C    0.000000
     7  H    1.085525   0.000000
     8  C    1.346434   2.082590   0.000000
     9  H    2.134486   3.068561   1.080590   0.000000
    10  H    2.110174   2.390152   1.084275   1.847037   0.000000
 Stoichiometry    C4H6
 Framework group  C2V[SGV(C4H6)]
 Deg. of freedom     9
 Full point group                 C2V     NOp   4
 Largest Abelian subgroup         C2V     NOp   4
 Largest concise Abelian subgroup C2      NOp   2
                         Standard orientation:                         
 ---------------------------------------------------------------------
 Center     Atomic      Atomic             Coordinates (Angstroms)
 Number     Number       Type             X           Y           Z
 ---------------------------------------------------------------------
      1          6           0        0.000000    1.580066   -0.503029
      2          1           0        0.000000    1.223772   -1.523190
      3          1           0        0.000000    2.654134   -0.354597
      4          6           0        0.000000    0.751716    0.558443
      5          1           0        0.000000    1.203894    1.545306
      6          6           0        0.000000   -0.751716    0.558443
      7          1           0        0.000000   -1.203894    1.545306
      8          6           0        0.000000   -1.580066   -0.503029
      9          1           0        0.000000   -1.223772   -1.523190
     10          1           0        0.000000   -2.654134   -0.354597
 ---------------------------------------------------------------------
 Rotational constants (GHZ):     21.6968477      5.3982146      4.3227153
 Standard basis: 6-31G (6D, 7F)
 There are    20 symmetry adapted basis functions of A1  symmetry.
 There are     4 symmetry adapted basis functions of A2  symmetry.
 There are     4 symmetry adapted basis functions of B1  symmetry.
 There are    20 symmetry adapted basis functions of B2  symmetry.
 Integral buffers will be    131072 words long.
 Raffenetti 2 integral format.
 Two-electron integral symmetry is turned on.
    48 basis functions,   112 primitive gaussians,    48 cartesian basis functions
    15 alpha electrons       15 beta electrons
       nuclear repulsion energy       103.5360933213 Hartrees.
 NAtoms=   10 NActive=   10 NUniq=    5 SFac= 4.00D+00 NAtFMM=   60 NAOKFM=F Big=F
 One-electron integrals computed using PRISM.
 NBasis=    48 RedAO= T  NBF=    20     4     4    20
 NBsUse=    48 1.00D-06 NBFU=    20     4     4    20
 Initial guess read from the read-write file.
 B after Tr=     0.000000    0.000000    0.000000
         Rot=    1.000000    0.000000    0.000000    0.000000 Ang=   0.00 deg.
 Initial guess orbital symmetries:
       Occupied  (A1) (B2) (B2) (A1) (A1) (B2) (A1) (B2) (A1) (A1)
                 (B2) (B2) (A1) (B1) (A2)
       Virtual   (B1) (A2) (A1) (A1) (B2) (B2) (A1) (B2) (A1) (B2)
                 (B2) (A1) (B1) (B2) (A1) (A2) (B1) (A1) (A2) (A1)
                 (B2) (B2) (A1) (B2) (A1) (B2) (A1) (B2) (A1) (B2)
                 (B2) (A1) (B2)
 Harris functional with IExCor=  402 diagonalized for initial guess.
 ExpMin= 1.61D-01 ExpMax= 3.05D+03 ExpMxC= 4.57D+02 IAcc=1 IRadAn=         1 AccDes= 0.00D+00
 HarFok:  IExCor=  402 AccDes= 0.00D+00 IRadAn=         1 IDoV= 1
 ScaDFX=  1.000000  1.000000  1.000000  1.000000
 FoFCou: FMM=F IPFlag=           0 FMFlag=      100000 FMFlg1=           0
         NFxFlg=           0 DoJE=T BraDBF=F KetDBF=T FulRan=T
         Omega=  0.000000  0.000000  1.000000  0.000000  0.000000 ICntrl=     500 IOpCl=  0
         NMat0=    1 NMatS0=    1 NMatT0=    0 NMatD0=    1 NMtDS0=    0 NMtDT0=    0
         I1Cent=           4 NGrid=           0.
 Petite list used in FoFCou.
 Requested convergence on RMS density matrix=1.00D-08 within 128 cycles.
 Requested convergence on MAX density matrix=1.00D-06.
 Requested convergence on             energy=1.00D-06.
 No special actions if energy rises.
 Keep R1 ints in memory in canonical form, NReq=1668728.
 Integral accuracy reduced to 1.0D-05 until final iterations.
 Initial convergence to 1.0D-05 achieved.  Increase integral accuracy.
 SCF Done:  E(RB3LYP) =  -155.952961541     A.U. after   12 cycles
             Convg  =    0.3866D-08             -V/T =  2.0064
 Calling FoFJK, ICntrl=      2127 FMM=F ISym2X=1 I1Cent= 0 IOpClX= 0 NMat=1 NMatS=1 NMatT=0.
 ***** Axes restored to original set *****
 -------------------------------------------------------------------
 Center     Atomic                   Forces (Hartrees/Bohr)
 Number     Number              X              Y              Z
 -------------------------------------------------------------------
      1        6           0.003727830    0.000000000   -0.006785973
      2        1           0.000786073    0.000000000    0.003953969
      3        1          -0.000884910    0.000000000    0.001791533
      4        6           0.015703489    0.000000000    0.004023884
      5        1           0.000534276    0.000000000   -0.002983413
      6        6          -0.015703489    0.000000000    0.004023884
      7        1          -0.000534276    0.000000000   -0.002983413
      8        6          -0.003727830    0.000000000   -0.006785973
      9        1          -0.000786073    0.000000000    0.003953969
     10        1           0.000884910    0.000000000    0.001791533
 -------------------------------------------------------------------
 Cartesian Forces:  Max     0.015703489 RMS     0.004845396

 GradGradGradGradGradGradGradGradGradGradGradGradGradGradGradGradGradGrad
 Berny optimization.
 Using GEDIIS/GDIIS optimizer.
 Internal  Forces:  Max     0.019866759 RMS     0.004064828
 Search for a local minimum.
 Step number   2 out of a maximum of   43
 All quantities printed in internal units (Hartrees-Bohrs-Radians)
 Mixed Optimization -- RFO/linear search
 Update second derivatives using D2CorX and points    1    2
 DE= -8.74D-03 DEPred=-1.06D-02 R= 8.23D-01
 SS=  1.41D+00  RLast= 2.83D-01 DXNew= 5.0454D-01 8.4815D-01
 Trust test= 8.23D-01 RLast= 2.83D-01 DXMaxT set to 5.05D-01
 ITU=  1  0
 Use linear search instead of GDIIS.
     Eigenvalues ---    0.00230   0.01485   0.01485   0.02681   0.02681
     Eigenvalues ---    0.02681   0.02681   0.15117   0.16000   0.16000
     Eigenvalues ---    0.16000   0.16000   0.16146   0.21663   0.22000
     Eigenvalues ---    0.32382   0.36506   0.37230   0.37230   0.37230
     Eigenvalues ---    0.37230   0.37859   0.53551   0.53930
 RFO step:  Lambda=-2.08709135D-03 EMin= 2.30000000D-03
 Quartic linear search produced a step of  0.03046.
 Iteration  1 RMS(Cart)=  0.03037737 RMS(Int)=  0.00009699
 Iteration  2 RMS(Cart)=  0.00009827 RMS(Int)=  0.00000000
 Iteration  3 RMS(Cart)=  0.00000000 RMS(Int)=  0.00000000
 ClnCor:  largest displacement from symmetrization is 1.78D-12 for atom     8.
 Variable       Old X    -DE/DX   Delta X   Delta X   Delta X     New X
                                 (Linear)    (Quad)   (Total)
    R1        2.04202   0.00399   0.00061   0.01262   0.01323   2.05525
    R2        2.04898   0.00063   0.00082   0.00395   0.00477   2.05376
    R3        2.54439  -0.00305  -0.00050  -0.00714  -0.00764   2.53675
    R4        2.05135   0.00249   0.00089   0.00926   0.01015   2.06150
    R5        2.84107  -0.01987  -0.00230  -0.07830  -0.08060   2.76047
    R6        2.05135   0.00249   0.00089   0.00926   0.01015   2.06150
    R7        2.54439  -0.00305  -0.00050  -0.00714  -0.00764   2.53675
    R8        2.04202   0.00399   0.00061   0.01262   0.01323   2.05525
    R9        2.04898   0.00063   0.00082   0.00395   0.00477   2.05376
    A1        2.04413  -0.00168  -0.00147  -0.01496  -0.01644   2.02770
    A2        2.14292  -0.00053   0.00136   0.00061   0.00197   2.14489
    A3        2.09613   0.00221   0.00011   0.01436   0.01447   2.11060
    A4        2.04928   0.00398  -0.00149   0.01735   0.01585   2.06513
    A5        2.23346  -0.00441   0.00428  -0.00839  -0.00410   2.22935
    A6        2.00045   0.00043  -0.00279  -0.00896  -0.01175   1.98870
    A7        2.00045   0.00043  -0.00279  -0.00896  -0.01175   1.98870
    A8        2.23346  -0.00441   0.00428  -0.00839  -0.00410   2.22935
    A9        2.04928   0.00398  -0.00149   0.01735   0.01585   2.06513
   A10        2.14292  -0.00053   0.00136   0.00061   0.00197   2.14489
   A11        2.09613   0.00221   0.00011   0.01436   0.01447   2.11060
   A12        2.04413  -0.00168  -0.00147  -0.01496  -0.01644   2.02770
    D1        3.14159   0.00000   0.00000   0.00000   0.00000   3.14159
    D2        0.00000   0.00000   0.00000   0.00000   0.00000   0.00000
    D3        0.00000   0.00000   0.00000   0.00000   0.00000   0.00000
    D4        3.14159   0.00000   0.00000   0.00000   0.00000   3.14159
    D5        3.14159   0.00000   0.00000   0.00000   0.00000   3.14159
    D6        0.00000   0.00000   0.00000   0.00000   0.00000   0.00000
    D7        0.00000   0.00000   0.00000   0.00000   0.00000   0.00000
    D8        3.14159   0.00000   0.00000   0.00000   0.00000   3.14159
    D9        0.00000   0.00000   0.00000   0.00000   0.00000   0.00000
   D10        3.14159   0.00000   0.00000   0.00000   0.00000   3.14159
   D11        3.14159   0.00000   0.00000   0.00000   0.00000   3.14159
   D12        0.00000   0.00000   0.00000   0.00000   0.00000   0.00000
         Item               Value     Threshold  Converged?
 Maximum Force            0.019867     0.000450     NO 
 RMS     Force            0.004065     0.000300     NO 
 Maximum Displacement     0.061737     0.001800     NO 
 RMS     Displacement     0.030431     0.001200     NO 
 Predicted change in Energy=-1.036136D-03
 GradGradGradGradGradGradGradGradGradGradGradGradGradGradGradGradGradGrad

                          Input orientation:                          
 ---------------------------------------------------------------------
 Center     Atomic      Atomic             Coordinates (Angstroms)
 Number     Number       Type             X           Y           Z
 ---------------------------------------------------------------------
      1          6           0       -1.551900    0.000000    0.523398
      2          1           0       -1.191102    0.000000    1.549402
      3          1           0       -2.631047    0.000000    0.394641
      4          6           0       -0.730389    0.000000   -0.538266
      5          1           0       -1.173124    0.000000   -1.535281
      6          6           0        0.730389    0.000000   -0.538266
      7          1           0        1.173124    0.000000   -1.535281
      8          6           0        1.551900    0.000000    0.523398
      9          1           0        1.191102    0.000000    1.549402
     10          1           0        2.631047    0.000000    0.394641
 ---------------------------------------------------------------------
                    Distance matrix (angstroms):
                    1          2          3          4          5
     1  C    0.000000
     2  H    1.087593   0.000000
     3  H    1.086801   1.845782   0.000000
     4  C    1.342390   2.137899   2.117266   0.000000
     5  H    2.093235   3.084735   2.418707   1.090896   0.000000
     6  C    2.517136   2.837337   3.488491   1.460778   2.148814
     7  H    3.415248   3.886494   4.265714   2.148814   2.346248
     8  C    3.103800   2.928608   4.184928   2.517136   3.415248
     9  H    2.928608   2.382205   3.992781   2.837337   3.886494
    10  H    4.184928   3.992781   5.262094   3.488491   4.265714
                    6          7          8          9         10
     6  C    0.000000
     7  H    1.090896   0.000000
     8  C    1.342390   2.093235   0.000000
     9  H    2.137899   3.084735   1.087593   0.000000
    10  H    2.117266   2.418707   1.086801   1.845782   0.000000
 Stoichiometry    C4H6
 Framework group  C2V[SGV(C4H6)]
 Deg. of freedom     9
 Full point group                 C2V     NOp   4
 Largest Abelian subgroup         C2V     NOp   4
 Largest concise Abelian subgroup C2      NOp   2
                         Standard orientation:                         
 ---------------------------------------------------------------------
 Center     Atomic      Atomic             Coordinates (Angstroms)
 Number     Number       Type             X           Y           Z
 ---------------------------------------------------------------------
      1          6           0        0.000000    1.551900   -0.502094
      2          1           0        0.000000    1.191102   -1.528098
      3          1           0        0.000000    2.631047   -0.373337
      4          6           0        0.000000    0.730389    0.559569
      5          1           0        0.000000    1.173124    1.556585
      6          6           0        0.000000   -0.730389    0.559569
      7          1           0        0.000000   -1.173124    1.556585
      8          6           0        0.000000   -1.551900   -0.502094
      9          1           0        0.000000   -1.191102   -1.528098
     10          1           0        0.000000   -2.631047   -0.373337
 ---------------------------------------------------------------------
 Rotational constants (GHZ):     21.5715572      5.6034027      4.4479963
 Standard basis: 6-31G (6D, 7F)
 There are    20 symmetry adapted basis functions of A1  symmetry.
 There are     4 symmetry adapted basis functions of A2  symmetry.
 There are     4 symmetry adapted basis functions of B1  symmetry.
 There are    20 symmetry adapted basis functions of B2  symmetry.
 Integral buffers will be    131072 words long.
 Raffenetti 2 integral format.
 Two-electron integral symmetry is turned on.
    48 basis functions,   112 primitive gaussians,    48 cartesian basis functions
    15 alpha electrons       15 beta electrons
       nuclear repulsion energy       104.4505076176 Hartrees.
 NAtoms=   10 NActive=   10 NUniq=    5 SFac= 4.00D+00 NAtFMM=   60 NAOKFM=F Big=F
 One-electron integrals computed using PRISM.
 NBasis=    48 RedAO= T  NBF=    20     4     4    20
 NBsUse=    48 1.00D-06 NBFU=    20     4     4    20
 Initial guess read from the read-write file.
 B after Tr=     0.000000    0.000000    0.000000
         Rot=    1.000000    0.000000    0.000000    0.000000 Ang=   0.00 deg.
 Initial guess orbital symmetries:
       Occupied  (A1) (B2) (B2) (A1) (A1) (B2) (A1) (B2) (A1) (A1)
                 (B2) (B2) (A1) (B1) (A2)
       Virtual   (B1) (A2) (A1) (A1) (B2) (B2) (B2) (A1) (A1) (B2)
                 (B2) (A1) (B1) (A1) (B2) (A2) (B1) (A1) (A2) (A1)
                 (B2) (B2) (A1) (B2) (A1) (A1) (B2) (B2) (B2) (A1)
                 (B2) (A1) (B2)
 Harris functional with IExCor=  402 diagonalized for initial guess.
 ExpMin= 1.61D-01 ExpMax= 3.05D+03 ExpMxC= 4.57D+02 IAcc=1 IRadAn=         1 AccDes= 0.00D+00
 HarFok:  IExCor=  402 AccDes= 0.00D+00 IRadAn=         1 IDoV= 1
 ScaDFX=  1.000000  1.000000  1.000000  1.000000
 FoFCou: FMM=F IPFlag=           0 FMFlag=      100000 FMFlg1=           0
         NFxFlg=           0 DoJE=T BraDBF=F KetDBF=T FulRan=T
         Omega=  0.000000  0.000000  1.000000  0.000000  0.000000 ICntrl=     500 IOpCl=  0
         NMat0=    1 NMatS0=    1 NMatT0=    0 NMatD0=    1 NMtDS0=    0 NMtDT0=    0
         I1Cent=           4 NGrid=           0.
 Petite list used in FoFCou.
 Requested convergence on RMS density matrix=1.00D-08 within 128 cycles.
 Requested convergence on MAX density matrix=1.00D-06.
 Requested convergence on             energy=1.00D-06.
 No special actions if energy rises.
 Keep R1 ints in memory in canonical form, NReq=1668728.
 Integral accuracy reduced to 1.0D-05 until final iterations.
 Initial convergence to 1.0D-05 achieved.  Increase integral accuracy.
 SCF Done:  E(RB3LYP) =  -155.953654745     A.U. after   11 cycles
             Convg  =    0.3795D-08             -V/T =  2.0059
 Calling FoFJK, ICntrl=      2127 FMM=F ISym2X=1 I1Cent= 0 IOpClX= 0 NMat=1 NMatS=1 NMatT=0.
 ***** Axes restored to original set *****
 -------------------------------------------------------------------
 Center     Atomic                   Forces (Hartrees/Bohr)
 Number     Number              X              Y              Z
 -------------------------------------------------------------------
      1        6          -0.003111361    0.000000000    0.001696183
      2        1           0.000040309    0.000000000   -0.000809517
      3        1           0.000990691    0.000000000    0.000736278
      4        6          -0.004837387    0.000000000   -0.003093532
      5        1          -0.001174035    0.000000000    0.001470588
      6        6           0.004837387    0.000000000   -0.003093532
      7        1           0.001174035    0.000000000    0.001470588
      8        6           0.003111361    0.000000000    0.001696183
      9        1          -0.000040309    0.000000000   -0.000809517
     10        1          -0.000990691    0.000000000    0.000736278
 -------------------------------------------------------------------
 Cartesian Forces:  Max     0.004837387 RMS     0.001848411

 GradGradGradGradGradGradGradGradGradGradGradGradGradGradGradGradGradGrad
 Berny optimization.
 Using GEDIIS/GDIIS optimizer.
 Internal  Forces:  Max     0.008091783 RMS     0.001776449
 Search for a local minimum.
 Step number   3 out of a maximum of   43
 All quantities printed in internal units (Hartrees-Bohrs-Radians)
 Mixed Optimization -- RFO/linear search
 Update second derivatives using D2CorX and points    1    2    3
 DE= -6.93D-04 DEPred=-1.04D-03 R= 6.69D-01
 SS=  1.41D+00  RLast= 9.48D-02 DXNew= 8.4853D-01 2.8452D-01
 Trust test= 6.69D-01 RLast= 9.48D-02 DXMaxT set to 5.05D-01
 ITU=  1  1  0
 Use linear search instead of GDIIS.
     Eigenvalues ---    0.00230   0.01502   0.01502   0.02681   0.02681
     Eigenvalues ---    0.02681   0.02681   0.14785   0.16000   0.16000
     Eigenvalues ---    0.16000   0.16132   0.16611   0.22000   0.26349
     Eigenvalues ---    0.35745   0.36408   0.37230   0.37230   0.37230
     Eigenvalues ---    0.37281   0.37641   0.53930   0.55157
 RFO step:  Lambda=-1.03071934D-04 EMin= 2.30000000D-03
 Quartic linear search produced a step of -0.25551.
 Iteration  1 RMS(Cart)=  0.01152915 RMS(Int)=  0.00005397
 Iteration  2 RMS(Cart)=  0.00006331 RMS(Int)=  0.00000000
 Iteration  3 RMS(Cart)=  0.00000000 RMS(Int)=  0.00000000
 ClnCor:  largest displacement from symmetrization is 5.47D-12 for atom     8.
 Variable       Old X    -DE/DX   Delta X   Delta X   Delta X     New X
                                 (Linear)    (Quad)   (Total)
    R1        2.05525  -0.00075  -0.00338   0.00150  -0.00188   2.05337
    R2        2.05376  -0.00107  -0.00122  -0.00129  -0.00251   2.05125
    R3        2.53675   0.00256   0.00195   0.00177   0.00373   2.54048
    R4        2.06150  -0.00087  -0.00259   0.00037  -0.00222   2.05928
    R5        2.76047   0.00809   0.02060   0.00119   0.02178   2.78226
    R6        2.06150  -0.00087  -0.00259   0.00037  -0.00222   2.05928
    R7        2.53675   0.00256   0.00195   0.00177   0.00373   2.54048
    R8        2.05525  -0.00075  -0.00338   0.00150  -0.00188   2.05337
    R9        2.05376  -0.00107  -0.00122  -0.00129  -0.00251   2.05125
    A1        2.02770  -0.00021   0.00420  -0.00461  -0.00041   2.02729
    A2        2.14489  -0.00084  -0.00050  -0.00381  -0.00431   2.14057
    A3        2.11060   0.00105  -0.00370   0.00842   0.00472   2.11532
    A4        2.06513  -0.00107  -0.00405  -0.00050  -0.00455   2.06058
    A5        2.22935  -0.00130   0.00105  -0.00736  -0.00631   2.22304
    A6        1.98870   0.00237   0.00300   0.00786   0.01086   1.99956
    A7        1.98870   0.00237   0.00300   0.00786   0.01086   1.99956
    A8        2.22935  -0.00130   0.00105  -0.00736  -0.00631   2.22304
    A9        2.06513  -0.00107  -0.00405  -0.00050  -0.00455   2.06058
   A10        2.14489  -0.00084  -0.00050  -0.00381  -0.00431   2.14057
   A11        2.11060   0.00105  -0.00370   0.00842   0.00472   2.11532
   A12        2.02770  -0.00021   0.00420  -0.00461  -0.00041   2.02729
    D1        3.14159   0.00000   0.00000   0.00000   0.00000   3.14159
    D2        0.00000   0.00000   0.00000   0.00000   0.00000   0.00000
    D3        0.00000   0.00000   0.00000   0.00000   0.00000   0.00000
    D4        3.14159   0.00000   0.00000   0.00000   0.00000   3.14159
    D5        3.14159   0.00000   0.00000   0.00000   0.00000   3.14159
    D6        0.00000   0.00000   0.00000   0.00000   0.00000   0.00000
    D7        0.00000   0.00000   0.00000   0.00000   0.00000   0.00000
    D8        3.14159   0.00000   0.00000   0.00000   0.00000   3.14159
    D9        0.00000   0.00000   0.00000   0.00000   0.00000   0.00000
   D10        3.14159   0.00000   0.00000   0.00000   0.00000   3.14159
   D11        3.14159   0.00000   0.00000   0.00000   0.00000   3.14159
   D12        0.00000   0.00000   0.00000   0.00000   0.00000   0.00000
         Item               Value     Threshold  Converged?
 Maximum Force            0.008092     0.000450     NO 
 RMS     Force            0.001776     0.000300     NO 
 Maximum Displacement     0.030388     0.001800     NO 
 RMS     Displacement     0.011517     0.001200     NO 
 Predicted change in Energy=-1.575171D-04
 GradGradGradGradGradGradGradGradGradGradGradGradGradGradGradGradGradGrad

                          Input orientation:                          
 ---------------------------------------------------------------------
 Center     Atomic      Atomic             Coordinates (Angstroms)
 Number     Number       Type             X           Y           Z
 ---------------------------------------------------------------------
      1          6           0       -1.552140    0.000000    0.523458
      2          1           0       -1.180799    0.000000    1.544632
      3          1           0       -2.631324    0.000000    0.406761
      4          6           0       -0.736153    0.000000   -0.544939
      5          1           0       -1.189205    0.000000   -1.536018
      6          6           0        0.736153    0.000000   -0.544939
      7          1           0        1.189205    0.000000   -1.536018
      8          6           0        1.552140    0.000000    0.523458
      9          1           0        1.180799    0.000000    1.544632
     10          1           0        2.631324    0.000000    0.406761
 ---------------------------------------------------------------------
                    Distance matrix (angstroms):
                    1          2          3          4          5
     1  C    0.000000
     2  H    1.086596   0.000000
     3  H    1.085475   1.843577   0.000000
     4  C    1.344362   2.136357   2.120709   0.000000
     5  H    2.091212   3.080662   2.419525   1.089722   0.000000
     6  C    2.525423   2.835668   3.499377   1.472306   2.165465
     7  H    3.428763   3.886814   4.286121   2.165465   2.378409
     8  C    3.104281   2.917491   4.185092   2.525423   3.428763
     9  H    2.917491   2.361597   3.978320   2.835668   3.886814
    10  H    4.185092   3.978320   5.262648   3.499377   4.286121
                    6          7          8          9         10
     6  C    0.000000
     7  H    1.089722   0.000000
     8  C    1.344362   2.091212   0.000000
     9  H    2.136357   3.080662   1.086596   0.000000
    10  H    2.120709   2.419525   1.085475   1.843577   0.000000
 Stoichiometry    C4H6
 Framework group  C2V[SGV(C4H6)]
 Deg. of freedom     9
 Full point group                 C2V     NOp   4
 Largest Abelian subgroup         C2V     NOp   4
 Largest concise Abelian subgroup C2      NOp   2
                         Standard orientation:                         
 ---------------------------------------------------------------------
 Center     Atomic      Atomic             Coordinates (Angstroms)
 Number     Number       Type             X           Y           Z
 ---------------------------------------------------------------------
      1          6           0        0.000000    1.552140   -0.504359
      2          1           0        0.000000    1.180799   -1.525533
      3          1           0        0.000000    2.631324   -0.387662
      4          6           0        0.000000    0.736153    0.564039
      5          1           0        0.000000    1.189205    1.555118
      6          6           0        0.000000   -0.736153    0.564039
      7          1           0        0.000000   -1.189205    1.555118
      8          6           0        0.000000   -1.552140   -0.504359
      9          1           0        0.000000   -1.180799   -1.525533
     10          1           0        0.000000   -2.631324   -0.387662
 ---------------------------------------------------------------------
 Rotational constants (GHZ):     21.4147715      5.5878484      4.4315143
 Standard basis: 6-31G (6D, 7F)
 There are    20 symmetry adapted basis functions of A1  symmetry.
 There are     4 symmetry adapted basis functions of A2  symmetry.
 There are     4 symmetry adapted basis functions of B1  symmetry.
 There are    20 symmetry adapted basis functions of B2  symmetry.
 Integral buffers will be    131072 words long.
 Raffenetti 2 integral format.
 Two-electron integral symmetry is turned on.
    48 basis functions,   112 primitive gaussians,    48 cartesian basis functions
    15 alpha electrons       15 beta electrons
       nuclear repulsion energy       104.2485463215 Hartrees.
 NAtoms=   10 NActive=   10 NUniq=    5 SFac= 4.00D+00 NAtFMM=   60 NAOKFM=F Big=F
 One-electron integrals computed using PRISM.
 NBasis=    48 RedAO= T  NBF=    20     4     4    20
 NBsUse=    48 1.00D-06 NBFU=    20     4     4    20
 Initial guess read from the read-write file.
 B after Tr=     0.000000    0.000000    0.000000
         Rot=    1.000000    0.000000    0.000000    0.000000 Ang=   0.00 deg.
 Initial guess orbital symmetries:
       Occupied  (A1) (B2) (B2) (A1) (A1) (B2) (A1) (B2) (A1) (A1)
                 (B2) (B2) (A1) (B1) (A2)
       Virtual   (B1) (A2) (A1) (A1) (B2) (B2) (B2) (A1) (A1) (B2)
                 (B2) (A1) (B1) (A1) (A2) (B2) (B1) (A1) (A2) (A1)
                 (B2) (A1) (B2) (B2) (A1) (A1) (B2) (B2) (B2) (A1)
                 (B2) (A1) (B2)
 Harris functional with IExCor=  402 diagonalized for initial guess.
 ExpMin= 1.61D-01 ExpMax= 3.05D+03 ExpMxC= 4.57D+02 IAcc=1 IRadAn=         1 AccDes= 0.00D+00
 HarFok:  IExCor=  402 AccDes= 0.00D+00 IRadAn=         1 IDoV= 1
 ScaDFX=  1.000000  1.000000  1.000000  1.000000
 FoFCou: FMM=F IPFlag=           0 FMFlag=      100000 FMFlg1=           0
         NFxFlg=           0 DoJE=T BraDBF=F KetDBF=T FulRan=T
         Omega=  0.000000  0.000000  1.000000  0.000000  0.000000 ICntrl=     500 IOpCl=  0
         NMat0=    1 NMatS0=    1 NMatT0=    0 NMatD0=    1 NMtDS0=    0 NMtDT0=    0
         I1Cent=           4 NGrid=           0.
 Petite list used in FoFCou.
 Requested convergence on RMS density matrix=1.00D-08 within 128 cycles.
 Requested convergence on MAX density matrix=1.00D-06.
 Requested convergence on             energy=1.00D-06.
 No special actions if energy rises.
 Keep R1 ints in memory in canonical form, NReq=1668728.
 Integral accuracy reduced to 1.0D-05 until final iterations.
 Initial convergence to 1.0D-05 achieved.  Increase integral accuracy.
 SCF Done:  E(RB3LYP) =  -155.953818866     A.U. after   10 cycles
             Convg  =    0.2226D-08             -V/T =  2.0061
 Calling FoFJK, ICntrl=      2127 FMM=F ISym2X=1 I1Cent= 0 IOpClX= 0 NMat=1 NMatS=1 NMatT=0.
 ***** Axes restored to original set *****
 -------------------------------------------------------------------
 Center     Atomic                   Forces (Hartrees/Bohr)
 Number     Number              X              Y              Z
 -------------------------------------------------------------------
      1        6          -0.000138160    0.000000000   -0.000076796
      2        1           0.000053242    0.000000000   -0.000040111
      3        1           0.000212720    0.000000000    0.000192531
      4        6          -0.000001561    0.000000000   -0.000405969
      5        1          -0.000117066    0.000000000    0.000330345
      6        6           0.000001561    0.000000000   -0.000405969
      7        1           0.000117066    0.000000000    0.000330345
      8        6           0.000138160    0.000000000   -0.000076796
      9        1          -0.000053242    0.000000000   -0.000040111
     10        1          -0.000212720    0.000000000    0.000192531
 -------------------------------------------------------------------
 Cartesian Forces:  Max     0.000405969 RMS     0.000163175

 GradGradGradGradGradGradGradGradGradGradGradGradGradGradGradGradGradGrad
 Berny optimization.
 Using GEDIIS/GDIIS optimizer.
 Internal  Forces:  Max     0.000734865 RMS     0.000266899
 Search for a local minimum.
 Step number   4 out of a maximum of   43
 All quantities printed in internal units (Hartrees-Bohrs-Radians)
 Mixed Optimization -- En-DIIS/RFO-DIIS
 Update second derivatives using D2CorX and points    1    2    3    4
 DE= -1.64D-04 DEPred=-1.58D-04 R= 1.04D+00
 SS=  1.41D+00  RLast= 3.12D-02 DXNew= 8.4853D-01 9.3492D-02
 Trust test= 1.04D+00 RLast= 3.12D-02 DXMaxT set to 5.05D-01
 ITU=  1  1  1  0
 Use linear search instead of GDIIS.
     Eigenvalues ---    0.00230   0.01493   0.01493   0.02681   0.02681
     Eigenvalues ---    0.02681   0.02681   0.14139   0.16000   0.16000
     Eigenvalues ---    0.16000   0.16084   0.16164   0.22000   0.23227
     Eigenvalues ---    0.36414   0.36956   0.37201   0.37230   0.37230
     Eigenvalues ---    0.37230   0.39272   0.53930   0.56522
 RFO step:  Lambda=-8.85015686D-06 EMin= 2.30000000D-03
 Quartic linear search produced a step of  0.10528.
 Iteration  1 RMS(Cart)=  0.00558760 RMS(Int)=  0.00001044
 Iteration  2 RMS(Cart)=  0.00001271 RMS(Int)=  0.00000000
 Iteration  3 RMS(Cart)=  0.00000000 RMS(Int)=  0.00000000
 ClnCor:  largest displacement from symmetrization is 3.81D-12 for atom     8.
 Variable       Old X    -DE/DX   Delta X   Delta X   Delta X     New X
                                 (Linear)    (Quad)   (Total)
    R1        2.05337  -0.00002  -0.00020   0.00014  -0.00006   2.05331
    R2        2.05125  -0.00023  -0.00026  -0.00042  -0.00069   2.05056
    R3        2.54048  -0.00002   0.00039  -0.00034   0.00005   2.54053
    R4        2.05928  -0.00025  -0.00023  -0.00050  -0.00073   2.05854
    R5        2.78226  -0.00001   0.00229  -0.00180   0.00050   2.78275
    R6        2.05928  -0.00025  -0.00023  -0.00050  -0.00073   2.05854
    R7        2.54048  -0.00002   0.00039  -0.00034   0.00005   2.54053
    R8        2.05337  -0.00002  -0.00020   0.00014  -0.00006   2.05331
    R9        2.05125  -0.00023  -0.00026  -0.00042  -0.00069   2.05056
    A1        2.02729  -0.00007  -0.00004  -0.00082  -0.00086   2.02643
    A2        2.14057  -0.00020  -0.00045  -0.00088  -0.00134   2.13924
    A3        2.11532   0.00027   0.00050   0.00170   0.00220   2.11752
    A4        2.06058   0.00012  -0.00048   0.00016  -0.00032   2.06027
    A5        2.22304  -0.00073  -0.00066  -0.00261  -0.00328   2.21976
    A6        1.99956   0.00062   0.00114   0.00245   0.00360   2.00316
    A7        1.99956   0.00062   0.00114   0.00245   0.00360   2.00316
    A8        2.22304  -0.00073  -0.00066  -0.00261  -0.00328   2.21976
    A9        2.06058   0.00012  -0.00048   0.00016  -0.00032   2.06027
   A10        2.14057  -0.00020  -0.00045  -0.00088  -0.00134   2.13924
   A11        2.11532   0.00027   0.00050   0.00170   0.00220   2.11752
   A12        2.02729  -0.00007  -0.00004  -0.00082  -0.00086   2.02643
    D1        3.14159   0.00000   0.00000   0.00000   0.00000   3.14159
    D2        0.00000   0.00000   0.00000   0.00000   0.00000   0.00000
    D3        0.00000   0.00000   0.00000   0.00000   0.00000   0.00000
    D4        3.14159   0.00000   0.00000   0.00000   0.00000   3.14159
    D5        3.14159   0.00000   0.00000   0.00000   0.00000   3.14159
    D6        0.00000   0.00000   0.00000   0.00000   0.00000   0.00000
    D7        0.00000   0.00000   0.00000   0.00000   0.00000   0.00000
    D8        3.14159   0.00000   0.00000   0.00000   0.00000   3.14159
    D9        0.00000   0.00000   0.00000   0.00000   0.00000   0.00000
   D10        3.14159   0.00000   0.00000   0.00000   0.00000   3.14159
   D11        3.14159   0.00000   0.00000   0.00000   0.00000   3.14159
   D12        0.00000   0.00000   0.00000   0.00000   0.00000   0.00000
         Item               Value     Threshold  Converged?
 Maximum Force            0.000735     0.000450     NO 
 RMS     Force            0.000267     0.000300     YES
 Maximum Displacement     0.015230     0.001800     NO 
 RMS     Displacement     0.005590     0.001200     NO 
 Predicted change in Energy=-5.800909D-06
 GradGradGradGradGradGradGradGradGradGradGradGradGradGradGradGradGradGrad

                          Input orientation:                          
 ---------------------------------------------------------------------
 Center     Atomic      Atomic             Coordinates (Angstroms)
 Number     Number       Type             X           Y           Z
 ---------------------------------------------------------------------
      1          6           0       -1.548780    0.000000    0.523298
      2          1           0       -1.172740    0.000000    1.542719
      3          1           0       -2.628225    0.000000    0.412549
      4          6           0       -0.736285    0.000000   -0.547790
      5          1           0       -1.192735    0.000000   -1.536881
      6          6           0        0.736285    0.000000   -0.547790
      7          1           0        1.192735    0.000000   -1.536881
      8          6           0        1.548780    0.000000    0.523298
      9          1           0        1.172740    0.000000    1.542719
     10          1           0        2.628225    0.000000    0.412549
 ---------------------------------------------------------------------
                    Distance matrix (angstroms):
                    1          2          3          4          5
     1  C    0.000000
     2  H    1.086566   0.000000
     3  H    1.085111   1.842749   0.000000
     4  C    1.344388   2.135585   2.121718   0.000000
     5  H    2.090720   3.079665   2.420932   1.089334   0.000000
     6  C    2.523639   2.831007   3.498882   1.472569   2.167814
     7  H    3.429321   3.883221   4.289523   2.167814   2.385469
     8  C    3.097561   2.906181   4.178473   2.523639   3.429321
     9  H    2.906181   2.345479   3.965428   2.831007   3.883221
    10  H    4.178473   3.965428   5.256450   3.498882   4.289523
                    6          7          8          9         10
     6  C    0.000000
     7  H    1.089334   0.000000
     8  C    1.344388   2.090720   0.000000
     9  H    2.135585   3.079665   1.086566   0.000000
    10  H    2.121718   2.420932   1.085111   1.842749   0.000000
 Stoichiometry    C4H6
 Framework group  C2V[SGV(C4H6)]
 Deg. of freedom     9
 Full point group                 C2V     NOp   4
 Largest Abelian subgroup         C2V     NOp   4
 Largest concise Abelian subgroup C2      NOp   2
                         Standard orientation:                         
 ---------------------------------------------------------------------
 Center     Atomic      Atomic             Coordinates (Angstroms)
 Number     Number       Type             X           Y           Z
 ---------------------------------------------------------------------
      1          6           0        0.000000    1.548780   -0.505202
      2          1           0        0.000000    1.172740   -1.524624
      3          1           0        0.000000    2.628225   -0.394453
      4          6           0        0.000000    0.736285    0.565886
      5          1           0        0.000000    1.192735    1.554977
      6          6           0        0.000000   -0.736285    0.565886
      7          1           0        0.000000   -1.192735    1.554977
      8          6           0        0.000000   -1.548780   -0.505202
      9          1           0        0.000000   -1.172740   -1.524624
     10          1           0        0.000000   -2.628225   -0.394453
 ---------------------------------------------------------------------
 Rotational constants (GHZ):     21.3474332      5.6064175      4.4402792
 Standard basis: 6-31G (6D, 7F)
 There are    20 symmetry adapted basis functions of A1  symmetry.
 There are     4 symmetry adapted basis functions of A2  symmetry.
 There are     4 symmetry adapted basis functions of B1  symmetry.
 There are    20 symmetry adapted basis functions of B2  symmetry.
 Integral buffers will be    131072 words long.
 Raffenetti 2 integral format.
 Two-electron integral symmetry is turned on.
    48 basis functions,   112 primitive gaussians,    48 cartesian basis functions
    15 alpha electrons       15 beta electrons
       nuclear repulsion energy       104.2876009474 Hartrees.
 NAtoms=   10 NActive=   10 NUniq=    5 SFac= 4.00D+00 NAtFMM=   60 NAOKFM=F Big=F
 One-electron integrals computed using PRISM.
 NBasis=    48 RedAO= T  NBF=    20     4     4    20
 NBsUse=    48 1.00D-06 NBFU=    20     4     4    20
 Initial guess read from the read-write file.
 B after Tr=     0.000000    0.000000    0.000000
         Rot=    1.000000    0.000000    0.000000    0.000000 Ang=   0.00 deg.
 Initial guess orbital symmetries:
       Occupied  (A1) (B2) (B2) (A1) (A1) (B2) (A1) (B2) (A1) (A1)
                 (B2) (B2) (A1) (B1) (A2)
       Virtual   (B1) (A2) (A1) (A1) (B2) (B2) (B2) (A1) (A1) (B2)
                 (B2) (A1) (B1) (A1) (A2) (B2) (B1) (A1) (A2) (A1)
                 (B2) (B2) (A1) (B2) (A1) (A1) (B2) (B2) (B2) (A1)
                 (B2) (A1) (B2)
 Requested convergence on RMS density matrix=1.00D-08 within 128 cycles.
 Requested convergence on MAX density matrix=1.00D-06.
 Requested convergence on             energy=1.00D-06.
 No special actions if energy rises.
 Keep R1 ints in memory in canonical form, NReq=1668728.
 SCF Done:  E(RB3LYP) =  -155.953825079     A.U. after    7 cycles
             Convg  =    0.8598D-08             -V/T =  2.0061
 Calling FoFJK, ICntrl=      2127 FMM=F ISym2X=1 I1Cent= 0 IOpClX= 0 NMat=1 NMatS=1 NMatT=0.
 ***** Axes restored to original set *****
 -------------------------------------------------------------------
 Center     Atomic                   Forces (Hartrees/Bohr)
 Number     Number              X              Y              Z
 -------------------------------------------------------------------
      1        6           0.000046471    0.000000000    0.000044914
      2        1          -0.000000345    0.000000000    0.000008237
      3        1          -0.000000284    0.000000000   -0.000006878
      4        6          -0.000003209    0.000000000   -0.000069071
      5        1           0.000026392    0.000000000    0.000022798
      6        6           0.000003209    0.000000000   -0.000069071
      7        1          -0.000026392    0.000000000    0.000022798
      8        6          -0.000046471    0.000000000    0.000044914
      9        1           0.000000345    0.000000000    0.000008237
     10        1           0.000000284    0.000000000   -0.000006878
 -------------------------------------------------------------------
 Cartesian Forces:  Max     0.000069071 RMS     0.000026191

 GradGradGradGradGradGradGradGradGradGradGradGradGradGradGradGradGradGrad
 Berny optimization.
 Using GEDIIS/GDIIS optimizer.
 Internal  Forces:  Max     0.000085676 RMS     0.000030355
 Search for a local minimum.
 Step number   5 out of a maximum of   43
 All quantities printed in internal units (Hartrees-Bohrs-Radians)
 Mixed Optimization -- En-DIIS/RFO-DIIS
 Swaping is turned off.
 Update second derivatives using D2CorX and points    1    2    3    4    5
 DE= -6.21D-06 DEPred=-5.80D-06 R= 1.07D+00
 SS=  1.41D+00  RLast= 8.03D-03 DXNew= 8.4853D-01 2.4102D-02
 Trust test= 1.07D+00 RLast= 8.03D-03 DXMaxT set to 5.05D-01
 ITU=  1  1  1  1  0
     Eigenvalues ---    0.00230   0.01490   0.01490   0.02681   0.02681
     Eigenvalues ---    0.02681   0.02681   0.14060   0.16000   0.16000
     Eigenvalues ---    0.16000   0.16114   0.16225   0.21231   0.22000
     Eigenvalues ---    0.36689   0.36949   0.37230   0.37230   0.37230
     Eigenvalues ---    0.37233   0.38332   0.53930   0.56373
 En-DIIS/RFO-DIIS IScMMF=        0 using points:     5    4
 RFO step:  Lambda=-5.70490863D-08.
 DidBck=F Rises=F RFO-DIIS coefs:    1.05942   -0.05942
 Iteration  1 RMS(Cart)=  0.00048151 RMS(Int)=  0.00000005
 Iteration  2 RMS(Cart)=  0.00000008 RMS(Int)=  0.00000000
 ClnCor:  largest displacement from symmetrization is 3.03D-12 for atom     8.
 Variable       Old X    -DE/DX   Delta X   Delta X   Delta X     New X
                                  (DIIS)     (GDIIS)  (Total)
    R1        2.05331   0.00001   0.00000   0.00002   0.00001   2.05333
    R2        2.05056   0.00000  -0.00004   0.00004   0.00000   2.05056
    R3        2.54053   0.00001   0.00000   0.00004   0.00004   2.54057
    R4        2.05854  -0.00003  -0.00004  -0.00005  -0.00009   2.05845
    R5        2.78275  -0.00007   0.00003  -0.00012  -0.00009   2.78266
    R6        2.05854  -0.00003  -0.00004  -0.00005  -0.00009   2.05845
    R7        2.54053   0.00001   0.00000   0.00004   0.00004   2.54057
    R8        2.05331   0.00001   0.00000   0.00002   0.00001   2.05333
    R9        2.05056   0.00000  -0.00004   0.00004   0.00000   2.05056
    A1        2.02643   0.00000  -0.00005   0.00003  -0.00002   2.02641
    A2        2.13924   0.00001  -0.00008   0.00014   0.00006   2.13929
    A3        2.11752  -0.00001   0.00013  -0.00017  -0.00004   2.11748
    A4        2.06027   0.00006  -0.00002   0.00024   0.00022   2.06048
    A5        2.21976  -0.00009  -0.00019  -0.00017  -0.00036   2.21940
    A6        2.00316   0.00003   0.00021  -0.00007   0.00014   2.00330
    A7        2.00316   0.00003   0.00021  -0.00007   0.00014   2.00330
    A8        2.21976  -0.00009  -0.00019  -0.00017  -0.00036   2.21940
    A9        2.06027   0.00006  -0.00002   0.00024   0.00022   2.06048
   A10        2.13924   0.00001  -0.00008   0.00014   0.00006   2.13929
   A11        2.11752  -0.00001   0.00013  -0.00017  -0.00004   2.11748
   A12        2.02643   0.00000  -0.00005   0.00003  -0.00002   2.02641
    D1        3.14159   0.00000   0.00000   0.00000   0.00000   3.14159
    D2        0.00000   0.00000   0.00000   0.00000   0.00000   0.00000
    D3        0.00000   0.00000   0.00000   0.00000   0.00000   0.00000
    D4        3.14159   0.00000   0.00000   0.00000   0.00000   3.14159
    D5        3.14159   0.00000   0.00000   0.00000   0.00000   3.14159
    D6        0.00000   0.00000   0.00000   0.00000   0.00000   0.00000
    D7        0.00000   0.00000   0.00000   0.00000   0.00000   0.00000
    D8        3.14159   0.00000   0.00000   0.00000   0.00000   3.14159
    D9        0.00000   0.00000   0.00000   0.00000   0.00000   0.00000
   D10        3.14159   0.00000   0.00000   0.00000   0.00000   3.14159
   D11        3.14159   0.00000   0.00000   0.00000   0.00000   3.14159
   D12        0.00000   0.00000   0.00000   0.00000   0.00000   0.00000
         Item               Value     Threshold  Converged?
 Maximum Force            0.000086     0.000450     YES
 RMS     Force            0.000030     0.000300     YES
 Maximum Displacement     0.001350     0.001800     YES
 RMS     Displacement     0.000482     0.001200     YES
 Predicted change in Energy=-5.524280D-08
 Optimization completed.
    -- Stationary point found.
                           ----------------------------
                           !   Optimized Parameters   !
                           ! (Angstroms and Degrees)  !
 --------------------------                            --------------------------
 ! Name  Definition              Value          Derivative Info.                !
 --------------------------------------------------------------------------------
 ! R1    R(1,2)                  1.0866         -DE/DX =    0.0                 !
 ! R2    R(1,3)                  1.0851         -DE/DX =    0.0                 !
 ! R3    R(1,4)                  1.3444         -DE/DX =    0.0                 !
 ! R4    R(4,5)                  1.0893         -DE/DX =    0.0                 !
 ! R5    R(4,6)                  1.4726         -DE/DX =   -0.0001              !
 ! R6    R(6,7)                  1.0893         -DE/DX =    0.0                 !
 ! R7    R(6,8)                  1.3444         -DE/DX =    0.0                 !
 ! R8    R(8,9)                  1.0866         -DE/DX =    0.0                 !
 ! R9    R(8,10)                 1.0851         -DE/DX =    0.0                 !
 ! A1    A(2,1,3)              116.1058         -DE/DX =    0.0                 !
 ! A2    A(2,1,4)              122.5693         -DE/DX =    0.0                 !
 ! A3    A(3,1,4)              121.3249         -DE/DX =    0.0                 !
 ! A4    A(1,4,5)              118.0445         -DE/DX =    0.0001              !
 ! A5    A(1,4,6)              127.1829         -DE/DX =   -0.0001              !
 ! A6    A(5,4,6)              114.7726         -DE/DX =    0.0                 !
 ! A7    A(4,6,7)              114.7726         -DE/DX =    0.0                 !
 ! A8    A(4,6,8)              127.1829         -DE/DX =   -0.0001              !
 ! A9    A(7,6,8)              118.0445         -DE/DX =    0.0001              !
 ! A10   A(6,8,9)              122.5693         -DE/DX =    0.0                 !
 ! A11   A(6,8,10)             121.3249         -DE/DX =    0.0                 !
 ! A12   A(9,8,10)             116.1058         -DE/DX =    0.0                 !
 ! D1    D(2,1,4,5)            180.0            -DE/DX =    0.0                 !
 ! D2    D(2,1,4,6)              0.0            -DE/DX =    0.0                 !
 ! D3    D(3,1,4,5)              0.0            -DE/DX =    0.0                 !
 ! D4    D(3,1,4,6)            180.0            -DE/DX =    0.0                 !
 ! D5    D(1,4,6,7)            180.0            -DE/DX =    0.0                 !
 ! D6    D(1,4,6,8)              0.0            -DE/DX =    0.0                 !
 ! D7    D(5,4,6,7)              0.0            -DE/DX =    0.0                 !
 ! D8    D(5,4,6,8)            180.0            -DE/DX =    0.0                 !
 ! D9    D(4,6,8,9)              0.0            -DE/DX =    0.0                 !
 ! D10   D(4,6,8,10)           180.0            -DE/DX =    0.0                 !
 ! D11   D(7,6,8,9)            180.0            -DE/DX =    0.0                 !
 ! D12   D(7,6,8,10)             0.0            -DE/DX =    0.0                 !
 --------------------------------------------------------------------------------
 GradGradGradGradGradGradGradGradGradGradGradGradGradGradGradGradGradGrad

                          Input orientation:                          
 ---------------------------------------------------------------------
 Center     Atomic      Atomic             Coordinates (Angstroms)
 Number     Number       Type             X           Y           Z
 ---------------------------------------------------------------------
      1          6           0       -1.548780    0.000000    0.523298
      2          1           0       -1.172740    0.000000    1.542719
      3          1           0       -2.628225    0.000000    0.412549
      4          6           0       -0.736285    0.000000   -0.547790
      5          1           0       -1.192735    0.000000   -1.536881
      6          6           0        0.736285    0.000000   -0.547790
      7          1           0        1.192735    0.000000   -1.536881
      8          6           0        1.548780    0.000000    0.523298
      9          1           0        1.172740    0.000000    1.542719
     10          1           0        2.628225    0.000000    0.412549
 ---------------------------------------------------------------------
                    Distance matrix (angstroms):
                    1          2          3          4          5
     1  C    0.000000
     2  H    1.086566   0.000000
     3  H    1.085111   1.842749   0.000000
     4  C    1.344388   2.135585   2.121718   0.000000
     5  H    2.090720   3.079665   2.420932   1.089334   0.000000
     6  C    2.523639   2.831007   3.498882   1.472569   2.167814
     7  H    3.429321   3.883221   4.289523   2.167814   2.385469
     8  C    3.097561   2.906181   4.178473   2.523639   3.429321
     9  H    2.906181   2.345479   3.965428   2.831007   3.883221
    10  H    4.178473   3.965428   5.256450   3.498882   4.289523
                    6          7          8          9         10
     6  C    0.000000
     7  H    1.089334   0.000000
     8  C    1.344388   2.090720   0.000000
     9  H    2.135585   3.079665   1.086566   0.000000
    10  H    2.121718   2.420932   1.085111   1.842749   0.000000
 Stoichiometry    C4H6
 Framework group  C2V[SGV(C4H6)]
 Deg. of freedom     9
 Full point group                 C2V     NOp   4
 Largest Abelian subgroup         C2V     NOp   4
 Largest concise Abelian subgroup C2      NOp   2
                         Standard orientation:                         
 ---------------------------------------------------------------------
 Center     Atomic      Atomic             Coordinates (Angstroms)
 Number     Number       Type             X           Y           Z
 ---------------------------------------------------------------------
      1          6           0        0.000000    1.548780   -0.505202
      2          1           0        0.000000    1.172740   -1.524624
      3          1           0        0.000000    2.628225   -0.394453
      4          6           0        0.000000    0.736285    0.565886
      5          1           0        0.000000    1.192735    1.554977
      6          6           0        0.000000   -0.736285    0.565886
      7          1           0        0.000000   -1.192735    1.554977
      8          6           0        0.000000   -1.548780   -0.505202
      9          1           0        0.000000   -1.172740   -1.524624
     10          1           0        0.000000   -2.628225   -0.394453
 ---------------------------------------------------------------------
 Rotational constants (GHZ):     21.3474332      5.6064175      4.4402792

 **********************************************************************

            Population analysis using the SCF density.

 **********************************************************************

 Orbital symmetries:
       Occupied  (A1) (B2) (B2) (A1) (A1) (B2) (A1) (B2) (A1) (A1)
                 (B2) (B2) (A1) (B1) (A2)
       Virtual   (B1) (A2) (A1) (A1) (B2) (B2) (B2) (A1) (A1) (B2)
                 (B2) (A1) (B1) (A1) (A2) (B2) (B1) (A1) (A2) (A1)
                 (B2) (B2) (A1) (B2) (A1) (A1) (B2) (B2) (B2) (A1)
                 (B2) (A1) (B2)
 The electronic state is 1-A1.
 Alpha  occ. eigenvalues --  -10.18991 -10.18970 -10.17898 -10.17897  -0.80207
 Alpha  occ. eigenvalues --   -0.72866  -0.62089  -0.52919  -0.49097  -0.44090
 Alpha  occ. eigenvalues --   -0.41870  -0.36135  -0.34884  -0.31915  -0.22834
 Alpha virt. eigenvalues --   -0.03118   0.09473   0.10170   0.11421   0.15252
 Alpha virt. eigenvalues --    0.19042   0.20299   0.20884   0.30487   0.34185
 Alpha virt. eigenvalues --    0.43491   0.48808   0.53030   0.55411   0.60130
 Alpha virt. eigenvalues --    0.60209   0.64239   0.66987   0.69169   0.71081
 Alpha virt. eigenvalues --    0.72217   0.86517   0.86730   0.90536   0.92676
 Alpha virt. eigenvalues --    0.95714   0.99064   1.01482   1.11297   1.12633
 Alpha virt. eigenvalues --    1.20789   1.27169   1.50281
          Condensed to atoms (all electrons):
              1          2          3          4          5          6
     1  C    5.040362   0.371626   0.364344   0.626138  -0.054441  -0.049225
     2  H    0.371626   0.577659  -0.041119  -0.037018   0.005430  -0.011150
     3  H    0.364344  -0.041119   0.572608  -0.021466  -0.007540   0.004622
     4  C    0.626138  -0.037018  -0.021466   4.819658   0.365291   0.424034
     5  H   -0.054441   0.005430  -0.007540   0.365291   0.611665  -0.038421
     6  C   -0.049225  -0.011150   0.004622   0.424034  -0.038421   4.819658
     7  H    0.005898   0.000076  -0.000170  -0.038421  -0.005951   0.365291
     8  C   -0.018028   0.004366   0.000100  -0.049225   0.005898   0.626138
     9  H    0.004366   0.003511  -0.000100  -0.011150   0.000076  -0.037018
    10  H    0.000100  -0.000100   0.000000   0.004622  -0.000170  -0.021466
              7          8          9         10
     1  C    0.005898  -0.018028   0.004366   0.000100
     2  H    0.000076   0.004366   0.003511  -0.000100
     3  H   -0.000170   0.000100  -0.000100   0.000000
     4  C   -0.038421  -0.049225  -0.011150   0.004622
     5  H   -0.005951   0.005898   0.000076  -0.000170
     6  C    0.365291   0.626138  -0.037018  -0.021466
     7  H    0.611665  -0.054441   0.005430  -0.007540
[...]
     7   1     0.00  -0.29   0.63     0.00  -0.22   0.47     0.00  -0.05   0.11
     8   6     0.00  -0.01   0.00     0.00  -0.02  -0.02     0.00   0.02   0.04
     9   1     0.00  -0.02   0.05     0.00  -0.12   0.30     0.00   0.20  -0.51
    10   1     0.00   0.14  -0.02     0.00   0.36  -0.05     0.00  -0.42   0.06
                    22                     23                     24
                    A1                     B2                     A1
 Frequencies --  3176.9052              3253.4959              3257.3677
 Red. masses --     1.0816                 1.1141                 1.1145
 Frc consts  --     6.4317                 6.9485                 6.9670
 IR Inten    --     1.3799                25.2055                15.5188
  Atom  AN      X      Y      Z        X      Y      Z        X      Y      Z
     1   6     0.00  -0.02   0.04     0.00   0.06   0.04     0.00  -0.06  -0.04
     2   1     0.00  -0.16  -0.41     0.00  -0.15  -0.41     0.00   0.15   0.42
     3   1     0.00   0.29   0.04     0.00  -0.54  -0.05     0.00   0.53   0.05
     4   6     0.00  -0.01  -0.04     0.00   0.00   0.01     0.00   0.00  -0.01
     5   1     0.00   0.20   0.42     0.00  -0.03  -0.07     0.00   0.04   0.09
     6   6     0.00   0.01  -0.04     0.00   0.00  -0.01     0.00   0.00  -0.01
     7   1     0.00  -0.20   0.42     0.00  -0.03   0.07     0.00  -0.04   0.09
     8   6     0.00   0.02   0.04     0.00   0.06  -0.04     0.00   0.06  -0.04
     9   1     0.00   0.16  -0.41     0.00  -0.15   0.41     0.00  -0.15   0.42
    10   1     0.00  -0.29   0.04     0.00  -0.54   0.05     0.00  -0.53   0.05

 -------------------
 - Thermochemistry -
 -------------------
 Temperature   298.150 Kelvin.  Pressure   1.00000 Atm.
 Atom     1 has atomic number  6 and mass  12.00000
 Atom     2 has atomic number  1 and mass   1.00783
 Atom     3 has atomic number  1 and mass   1.00783
 Atom     4 has atomic number  6 and mass  12.00000
 Atom     5 has atomic number  1 and mass   1.00783
 Atom     6 has atomic number  6 and mass  12.00000
 Atom     7 has atomic number  1 and mass   1.00783
 Atom     8 has atomic number  6 and mass  12.00000
 Atom     9 has atomic number  1 and mass   1.00783
 Atom    10 has atomic number  1 and mass   1.00783
 Molecular mass:    54.04695 amu.
 Principal axes and moments of inertia in atomic units:
                           1         2         3
     Eigenvalues --    84.54137 321.90632 406.44769
           X            0.00000   0.00000   1.00000
           Y            1.00000   0.00000   0.00000
           Z            0.00000   1.00000   0.00000
 This molecule is an asymmetric top.
 Rotational symmetry number  2.
 Rotational temperatures (Kelvin)      1.02451     0.26907     0.21310
 Rotational constants (GHZ):          21.34743     5.60642     4.44028
    1 imaginary frequencies ignored.
 Zero-point vibrational energy     225322.0 (Joules/Mol)
                                   53.85325 (Kcal/Mol)
 Warning -- explicit consideration of   3 degrees of freedom as
           vibrations may cause significant error
 Vibrational temperatures:    434.14   756.56   843.40  1096.28  1287.76
          (Kelvin)           1389.48  1391.74  1507.50  1518.59  1576.27
                             1643.79  1946.86  2008.34  2139.99  2170.26
                             2429.93  2474.88  4531.81  4553.84  4559.99
                             4570.85  4681.05  4686.62
 
 Zero-point correction=                           0.085821 (Hartree/Particle)
 Thermal correction to Energy=                    0.089811
 Thermal correction to Enthalpy=                  0.090755
 Thermal correction to Gibbs Free Energy=         0.060422
 Sum of electronic and zero-point Energies=           -155.868004
 Sum of electronic and thermal Energies=              -155.864014
 Sum of electronic and thermal Enthalpies=            -155.863070
 Sum of electronic and thermal Free Energies=         -155.893403
 
                     E (Thermal)             CV                S
                      KCal/Mol        Cal/Mol-Kelvin    Cal/Mol-Kelvin
 Total                   56.357             13.572             63.841
 Electronic               0.000              0.000              0.000
 Translational            0.889              2.981             37.884
 Rotational               0.889              2.981             22.541
 Vibrational             54.580              7.610              3.416
 Vibration     1          0.694              1.670              1.407
 Vibration     2          0.881              1.193              0.597
 Vibration     3          0.943              1.061              0.474
                       Q            Log10(Q)             Ln(Q)
 Total Bot       0.161350D-27        -27.792230        -63.993975
 Total V=0       0.481315D+12         11.682430         26.899788
 Vib (Bot)       0.548832D-39        -39.260561        -90.400781
 Vib (Bot)    1  0.629636D+00         -0.200910         -0.462613
 Vib (Bot)    2  0.305318D+00         -0.515248         -1.186402
 Vib (Bot)    3  0.258337D+00         -0.587813         -1.353491
 Vib (V=0)       0.163719D+01          0.214099          0.492982
 Vib (V=0)    1  0.130402D+01          0.115283          0.265449
 Vib (V=0)    2  0.108585D+01          0.035769          0.082362
 Vib (V=0)    3  0.106279D+01          0.026449          0.060902
 Electronic      0.100000D+01          0.000000          0.000000
 Translational   0.156175D+08          7.193612         16.563904
 Rotational      0.188243D+05          4.274718          9.842902
 ***** Axes restored to original set *****
 -------------------------------------------------------------------
 Center     Atomic                   Forces (Hartrees/Bohr)
 Number     Number              X              Y              Z
 -------------------------------------------------------------------
      1        6           0.000046479    0.000000000    0.000044910
      2        1          -0.000000345    0.000000000    0.000008236
      3        1          -0.000000287    0.000000000   -0.000006878
      4        6          -0.000003205    0.000000000   -0.000069066
      5        1           0.000026392    0.000000000    0.000022798
      6        6           0.000003205    0.000000000   -0.000069066
      7        1          -0.000026392    0.000000000    0.000022798
      8        6          -0.000046479    0.000000000    0.000044910
      9        1           0.000000345    0.000000000    0.000008236
     10        1           0.000000287    0.000000000   -0.000006878
 -------------------------------------------------------------------
 Cartesian Forces:  Max     0.000069066 RMS     0.000026191

 GradGradGradGradGradGradGradGradGradGradGradGradGradGradGradGradGradGrad
 Berny optimization.
 Internal  Forces:  Max     0.000085676 RMS     0.000030355
 Search for a local minimum.
 Step number   1 out of a maximum of    2
 All quantities printed in internal units (Hartrees-Bohrs-Radians)
 Second derivative matrix not updated -- analytic derivatives used.
 ITU=  0
     Eigenvalues ---   -0.00181   0.02533   0.02567   0.02917   0.03009
     Eigenvalues ---    0.04101   0.04113   0.10917   0.11303   0.11667
     Eigenvalues ---    0.11980   0.14263   0.14334   0.18182   0.19938
     Eigenvalues ---    0.35464   0.35505   0.35709   0.36360   0.36688
     Eigenvalues ---    0.36694   0.37254   0.61349   0.62856
 Eigenvalue     1 is  -1.81D-03 should be greater than     0.000000 Eigenvector:
                          D6        D8        D5        D7        D11
   1                    0.52273   0.49300   0.49300   0.46326   0.08090
                          D1        D12       D3        D2        D9
   1                    0.08090   0.05702   0.05702   0.05031   0.05031
 Angle between quadratic step and forces=  17.24 degrees.
 Linear search not attempted -- first point.
 Iteration  1 RMS(Cart)=  0.00049775 RMS(Int)=  0.00000006
 Iteration  2 RMS(Cart)=  0.00000008 RMS(Int)=  0.00000000
 ClnCor:  largest displacement from symmetrization is 4.52D-12 for atom     2.
 Variable       Old X    -DE/DX   Delta X   Delta X   Delta X     New X
                                 (Linear)    (Quad)   (Total)
    R1        2.05331   0.00001   0.00000   0.00000   0.00000   2.05331
    R2        2.05056   0.00000   0.00000   0.00001   0.00001   2.05057
    R3        2.54053   0.00001   0.00000   0.00002   0.00002   2.54055
    R4        2.05854  -0.00003   0.00000  -0.00011  -0.00011   2.05844
    R5        2.78275  -0.00007   0.00000  -0.00009  -0.00009   2.78266
    R6        2.05854  -0.00003   0.00000  -0.00011  -0.00011   2.05844
    R7        2.54053   0.00001   0.00000   0.00002   0.00002   2.54055
    R8        2.05331   0.00001   0.00000   0.00000   0.00000   2.05331
    R9        2.05056   0.00000   0.00000   0.00001   0.00001   2.05057
    A1        2.02643   0.00000   0.00000   0.00000   0.00000   2.02643
    A2        2.13924   0.00001   0.00000   0.00007   0.00007   2.13930
    A3        2.11752  -0.00001   0.00000  -0.00007  -0.00007   2.11745
    A4        2.06027   0.00006   0.00000   0.00025   0.00025   2.06051
    A5        2.21976  -0.00009   0.00000  -0.00038  -0.00038   2.21938
    A6        2.00316   0.00003   0.00000   0.00013   0.00013   2.00329
    A7        2.00316   0.00003   0.00000   0.00013   0.00013   2.00329
    A8        2.21976  -0.00009   0.00000  -0.00038  -0.00038   2.21938
    A9        2.06027   0.00006   0.00000   0.00025   0.00025   2.06051
   A10        2.13924   0.00001   0.00000   0.00007   0.00007   2.13930
   A11        2.11752  -0.00001   0.00000  -0.00007  -0.00007   2.11745
   A12        2.02643   0.00000   0.00000   0.00000   0.00000   2.02643
    D1        3.14159   0.00000   0.00000   0.00000   0.00000   3.14159
    D2        0.00000   0.00000   0.00000   0.00000   0.00000   0.00000
    D3        0.00000   0.00000   0.00000   0.00000   0.00000   0.00000
    D4        3.14159   0.00000   0.00000   0.00000   0.00000   3.14159
    D5        3.14159   0.00000   0.00000   0.00000   0.00000   3.14159
    D6        0.00000   0.00000   0.00000   0.00000   0.00000   0.00000
    D7        0.00000   0.00000   0.00000   0.00000   0.00000   0.00000
    D8        3.14159   0.00000   0.00000   0.00000   0.00000   3.14159
    D9        0.00000   0.00000   0.00000   0.00000   0.00000   0.00000
   D10        3.14159   0.00000   0.00000   0.00000   0.00000   3.14159
   D11        3.14159   0.00000   0.00000   0.00000   0.00000   3.14159
   D12        0.00000   0.00000   0.00000   0.00000   0.00000   0.00000
         Item               Value     Threshold  Converged?
 Maximum Force            0.000086     0.000450     YES
 RMS     Force            0.000030     0.000300     YES
 Maximum Displacement     0.001408     0.001800     YES
 RMS     Displacement     0.000498     0.001200     YES
 Predicted change in Energy=-5.879611D-08
 Optimization completed.
    -- Stationary point found.
                           ----------------------------
                           !   Optimized Parameters   !
                           ! (Angstroms and Degrees)  !
 --------------------------                            --------------------------
 ! Name  Definition              Value          Derivative Info.                !
 --------------------------------------------------------------------------------
 ! R1    R(1,2)                  1.0866         -DE/DX =    0.0                 !
 ! R2    R(1,3)                  1.0851         -DE/DX =    0.0                 !
 ! R3    R(1,4)                  1.3444         -DE/DX =    0.0                 !
 ! R4    R(4,5)                  1.0893         -DE/DX =    0.0                 !
 ! R5    R(4,6)                  1.4726         -DE/DX =   -0.0001              !
 ! R6    R(6,7)                  1.0893         -DE/DX =    0.0                 !
 ! R7    R(6,8)                  1.3444         -DE/DX =    0.0                 !
 ! R8    R(8,9)                  1.0866         -DE/DX =    0.0                 !
 ! R9    R(8,10)                 1.0851         -DE/DX =    0.0                 !
 ! A1    A(2,1,3)              116.1058         -DE/DX =    0.0                 !
 ! A2    A(2,1,4)              122.5693         -DE/DX =    0.0                 !
 ! A3    A(3,1,4)              121.3249         -DE/DX =    0.0                 !
 ! A4    A(1,4,5)              118.0445         -DE/DX =    0.0001              !
 ! A5    A(1,4,6)              127.1829         -DE/DX =   -0.0001              !
 ! A6    A(5,4,6)              114.7726         -DE/DX =    0.0                 !
 ! A7    A(4,6,7)              114.7726         -DE/DX =    0.0                 !
 ! A8    A(4,6,8)              127.1829         -DE/DX =   -0.0001              !
 ! A9    A(7,6,8)              118.0445         -DE/DX =    0.0001              !
 ! A10   A(6,8,9)              122.5693         -DE/DX =    0.0                 !
 ! A11   A(6,8,10)             121.3249         -DE/DX =    0.0                 !
 ! A12   A(9,8,10)             116.1058         -DE/DX =    0.0                 !
 ! D1    D(2,1,4,5)            180.0            -DE/DX =    0.0                 !
 ! D2    D(2,1,4,6)              0.0            -DE/DX =    0.0                 !
 ! D3    D(3,1,4,5)              0.0            -DE/DX =    0.0                 !
 ! D4    D(3,1,4,6)            180.0            -DE/DX =    0.0                 !
 ! D5    D(1,4,6,7)            180.0            -DE/DX =    0.0                 !
 ! D6    D(1,4,6,8)              0.0            -DE/DX =    0.0                 !
 ! D7    D(5,4,6,7)              0.0            -DE/DX =    0.0                 !
 ! D8    D(5,4,6,8)            180.0            -DE/DX =    0.0                 !
 ! D9    D(4,6,8,9)              0.0            -DE/DX =    0.0                 !
 ! D10   D(4,6,8,10)           180.0            -DE/DX =    0.0                 !
 ! D11   D(7,6,8,9)            180.0            -DE/DX =    0.0                 !
 ! D12   D(7,6,8,10)             0.0            -DE/DX =    0.0                 !
 --------------------------------------------------------------------------------
 GradGradGradGradGradGradGradGradGradGradGradGradGradGradGradGradGradGrad

 1\1\GINC-STUDENT-LENOVO-S510\Freq\RB3LYP\6-31G\C4H6\STUDENT\02-Mar-202
 1\0\\#N Geom=AllCheck Guess=TCheck SCRF=Check GenChk RB3LYP/6-31G Freq
 \\Title Card Required\\0,1\C,-1.5487804009,0.,0.5232980395\H,-1.172739
 542,0.,1.5427191161\H,-2.6282249018,0.,0.4125486784\C,-0.736284564,0.,
 -0.5477902262\H,-1.192734744,0.,-1.5368814577\C,0.736284564,0.,-0.5477
 902262\H,1.192734744,0.,-1.5368814577\C,1.5487804009,0.,0.5232980395\H
 ,1.172739542,0.,1.5427191161\H,2.6282249018,0.,0.4125486784\\Version=E
 M64L-G09RevC.01\State=1-A1\HF=-155.9538251\RMSD=8.024e-10\RMSF=2.619e-
 05\ZeroPoint=0.0858206\Thermal=0.0898109\Dipole=0.,0.,-0.0369707\Dipol
 eDeriv=-0.0850593,0.,0.0641755,0.,-0.3298456,0.,0.0892167,0.,0.0299129
 ,0.0281342,0.,-0.0790209,0.,0.1563261,0.,-0.0492668,0.,-0.0815453,-0.1
 108572,0.,-0.0078379,0.,0.1498053,0.,-0.01865,0.,0.0567404,0.1741833,0
 .,0.0887439,0.,-0.1048389,0.,0.2663478,0.,0.1125256,-0.0064009,0.,-0.0
 549221,0.,0.1285531,0.,-0.087765,0.,-0.1176337,0.1741833,0.,-0.0887439
 ,0.,-0.1048389,0.,-0.2663479,0.,0.1125256,-0.0064009,0.,0.0549221,0.,0
 .1285531,0.,0.087765,0.,-0.1176337,-0.0850593,0.,-0.0641755,0.,-0.3298
 456,0.,-0.0892167,0.,0.029913,0.0281342,0.,0.0790209,0.,0.1563261,0.,0
 .0492668,0.,-0.0815453,-0.1108572,0.,0.0078379,0.,0.1498053,0.,0.01865
 ,0.,0.0567404\Polar=61.8676045,0.,13.6851155,0.,0.,45.6692911\PG=C02V 
 [SGV(C4H6)]\NImag=1\\0.72507565,0.,0.11195677,-0.09578542,0.,0.7744113
 9,-0.09579553,0.,-0.09537804,0.09353497,0.,-0.03848894,0.,0.,0.0226950
 5,-0.09124037,0.,-0.30322485,0.10011025,0.,0.32564056,-0.34158612,0.,-
 0.03097645,-0.00706620,0.,0.00217982,0.36220779,0.,-0.03344568,0.,0.,0
 .00350706,0.,0.,0.02259966,-0.03708252,0.,-0.06155097,-0.02793615,0.,-
 0.00077899,0.03219974,0.,0.05990416,-0.25942958,0.,0.19219775,0.012461
 06,0.,-0.01320791,-0.01556575,0.,0.03080793,0.65449496,0.,-0.05592169,
 0.,0.,0.00656955,0.,0.,0.00547017,0.,0.,0.13922013,0.20500415,0.,-0.39
 278097,0.02089509,0.,-0.02176041,-0.00688338,0.,0.00434705,-0.10150784
 ,0.,0.79422778,0.00934968,0.,0.02298744,-0.00156576,0.,0.00318279,0.00
 123268,0.,0.00003097,-0.10576402,0.,-0.10475325,0.11627378,0.,0.006649
 14,0.,0.,0.01231699,0.,0.,-0.00822560,0.,0.,-0.04288867,0.,0.,0.027511
 07,-0.01315506,0.,-0.02471084,0.00311865,0.,-0.00191976,0.00041032,0.,
 0.00135318,-0.10383295,0.,-0.28110097,0.10861445,0.,0.30309430,-0.0355
 7283,0.,0.01770437,-0.00013398,0.,-0.00157569,0.00118026,0.,0.00072058
 ,-0.23711131,0.,-0.01725675,-0.01455879,0.,0.00486448,0.65449496,0.,0.
 00734096,0.,0.,-0.00784764,0.,0.,0.01123956,0.,0.,-0.06701031,0.,0.,0.
 00382795,0.,0.,0.13922013,0.02526830,0.,0.01159499,-0.00101400,0.,0.00
 072620,0.00296033,0.,-0.00343734,0.01725675,0.,-0.11259282,-0.03171661
 ,0.,0.00077650,0.10150784,0.,0.79422778,-0.00523672,0.,-0.00255328,0.0
 0027647,0.,0.00007452,-0.00091113,0.,0.00114363,-0.01455879,0.,0.03171
 661,0.00090381,0.,-0.00031910,-0.10576402,0.,0.10475325,0.11627378,0.,
 0.00154552,0.,0.,-0.00005043,0.,0.,0.00003740,0.,0.,0.00382795,0.,0.,-
 0.00072336,0.,0.,-0.04288867,0.,0.,0.02751107,-0.00004074,0.,0.0011751
 5,-0.00025362,0.,0.00016608,-0.00000485,0.,-0.00009733,-0.00486448,0.,
 0.00077650,0.00031910,0.,0.00126369,0.10383295,0.,-0.28110097,-0.10861
 445,0.,0.30309430,0.00313057,0.,-0.00726719,-0.00033196,0.,0.00030463,
 0.00039684,0.,-0.00006911,-0.03557283,0.,-0.02526830,-0.00523672,0.,0.
 00004074,-0.25942958,0.,-0.20500415,0.00934968,0.,0.01315506,0.7250756
 5,0.,0.00055215,0.,0.,0.00035392,0.,0.,-0.00054214,0.,0.,0.00734096,0.
 ,0.,0.00154552,0.,0.,-0.05592169,0.,0.,0.00664914,0.,0.,0.11195677,0.0
 0726719,0.,-0.00420817,0.00084885,0.,-0.00014934,0.00008031,0.,-0.0005
 5639,-0.01770437,0.,0.01159499,0.00255328,0.,0.00117515,-0.19219775,0.
 ,-0.39278097,-0.02298744,0.,-0.02471084,0.09578542,0.,0.77441139,-0.00
 033196,0.,-0.00084885,-0.00160492,0.,0.00022741,0.00022585,0.,0.000163
 62,-0.00013398,0.,0.00101400,0.00027647,0.,0.00025362,0.01246106,0.,-0
 .02089509,-0.00156576,0.,-0.00311865,-0.09579553,0.,0.09537804,0.09353
 497,0.,0.00035392,0.,0.,0.00103779,0.,0.,-0.00009334,0.,0.,-0.00784764
 ,0.,0.,-0.00005043,0.,0.,0.00656955,0.,0.,0.01231699,0.,0.,-0.03848894
 ,0.,0.,0.02269505,-0.00030463,0.,-0.00014934,-0.00022741,0.,0.00083456
 ,0.00005546,0.,0.00046595,0.00157569,0.,0.00072620,-0.00007452,0.,0.00
 016608,0.01320791,0.,-0.02176041,-0.00318279,0.,-0.00191976,0.09124037
 ,0.,-0.30322485,-0.10011025,0.,0.32564056,0.00039684,0.,-0.00008031,0.
 00022585,0.,-0.00005546,-0.00011423,0.,0.00002129,0.00118026,0.,-0.002
 96033,-0.00091113,0.,0.00000485,-0.01556575,0.,0.00688338,0.00123268,0
 .,-0.00041032,-0.34158612,0.,0.03097645,-0.00706620,0.,-0.00217982,0.3
 6220779,0.,-0.00054214,0.,0.,-0.00009334,0.,0.,-0.00054708,0.,0.,0.011
 23956,0.,0.,0.00003740,0.,0.,0.00547017,0.,0.,-0.00822560,0.,0.,-0.033
 44568,0.,0.,0.00350706,0.,0.,0.02259966,0.00006911,0.,-0.00055639,-0.0
 0016362,0.,0.00046595,-0.00002129,0.,0.00035069,-0.00072058,0.,-0.0034
 3734,-0.00114363,0.,-0.00009733,-0.03080793,0.,0.00434705,-0.00003097,
 0.,0.00135318,0.03708252,0.,-0.06155097,0.02793615,0.,-0.00077899,-0.0
 3219974,0.,0.05990416\\-0.00004648,0.,-0.00004491,0.00000035,0.,-0.000
 00824,0.00000029,0.,0.00000688,0.00000320,0.,0.00006907,-0.00002639,0.
 ,-0.00002280,-0.00000320,0.,0.00006907,0.00002639,0.,-0.00002280,0.000
 04648,0.,-0.00004491,-0.00000035,0.,-0.00000824,-0.00000029,0.,0.00000
 688\\\@


 HERE WE GO......
 SLIDING DOWN THE RAZOR BLADE OF LIFE......
                                 TOM LEHRER
 Job cpu time:  0 days  0 hours  0 minutes  7.1 seconds.
 File lengths (MBytes):  RWF=      5 Int=      0 D2E=      0 Chk=      1 Scr=      1
 Normal termination of Gaussian 09 at Tue Mar  2 11:35:15 2021.
