 Entering Gaussian System, Link 0=g09
 Input=hexa.com
 Output=hexa.log
 Initial command:
 /home/student/g09/l1.exe /home/student/Aniruddha_1811022/Lab_3/Gau-8420.inp -scrdir=/home/student/Aniruddha_1811022/Lab_3/
 Entering Link 1 = /home/student/g09/l1.exe PID=      8422.
  
 Copyright (c) 1988,1990,1992,1993,1995,1998,2003,2009,2011,
            Gaussian, Inc.  All Rights Reserved.
  
 This is part of the Gaussian(R) 09 program.  It is based on
 the Gaussian(R) 03 system (copyright 2003, Gaussian, Inc.),
 the Gaussian(R) 98 system (copyright 1998, Gaussian, Inc.),
 the Gaussian(R) 94 system (copyright 1995, Gaussian, Inc.),
 the Gaussian 92(TM) system (copyright 1992, Gaussian, Inc.),
 the Gaussian 90(TM) system (copyright 1990, Gaussian, Inc.),
 the Gaussian 88(TM) system (copyright 1988, Gaussian, Inc.),
 the Gaussian 86(TM) system (copyright 1986, Carnegie Mellon
 University), and the Gaussian 82(TM) system (copyright 1983,
 Carnegie Mellon University). Gaussian is a federally registered
 trademark of Gaussian, Inc.
  
 This software contains proprietary and confidential information,
 including trade secrets, belonging to Gaussian, Inc.
  
 This software is provided under written license and may be
 used, copied, transmitted, or stored only in accord with that
 written license.
  
 The following legend is applicable only to US Government
 contracts under FAR:
  
                    RESTRICTED RIGHTS LEGEND
  
 Use, reproduction and disclosure by the US Government is
 subject to restrictions as set forth in subparagraphs (a)
 and (c) of the Commercial Computer Software - Restricted
 Rights clause in FAR 52.227-19.
  
 Gaussian, Inc.
 340 Quinnipiac St., Bldg. 40, Wallingford CT 06492
  
  
 ---------------------------------------------------------------
 Warning -- This program may not be used in any manner that
 competes with the business of Gaussian, Inc. or will provide
 assistance to any competitor of Gaussian, Inc.  The licensee
 of this program is prohibited from giving any competitor of
 Gaussian, Inc. access to this program.  By using this program,
 the user acknowledges that Gaussian, Inc. is engaged in the
 business of creating and licensing software in the field of
 computational chemistry and represents and warrants to the
 licensee that it is not a competitor of Gaussian, Inc. and that
 it will not use this program in any manner prohibited above.
 ---------------------------------------------------------------
  

 Cite this work as:
 Gaussian 09, Revision C.01,
 M. J. Frisch, G. W. Trucks, H. B. Schlegel, G. E. Scuseria, 
 M. A. Robb, J. R. Cheeseman, G. Scalmani, V. Barone, B. Mennucci, 
 G. A. Petersson, H. Nakatsuji, M. Caricato, X. Li, H. P. Hratchian, 
 A. F. Izmaylov, J. Bloino, G. Zheng, J. L. Sonnenberg, M. Hada, 
 M. Ehara, K. Toyota, R. Fukuda, J. Hasegawa, M. Ishida, T. Nakajima, 
 Y. Honda, O. Kitao, H. Nakai, T. Vreven, J. A. Montgomery, Jr., 
 J. E. Peralta, F. Ogliaro, M. Bearpark, J. J. Heyd, E. Brothers, 
 K. N. Kudin, V. N. Staroverov, T. Keith, R. Kobayashi, J. Normand, 
 K. Raghavachari, A. Rendell, J. C. Burant, S. S. Iyengar, J. Tomasi, 
 M. Cossi, N. Rega, J. M. Millam, M. Klene, J. E. Knox, J. B. Cross, 
 V. Bakken, C. Adamo, J. Jaramillo, R. Gomperts, R. E. Stratmann, 
 O. Yazyev, A. J. Austin, R. Cammi, C. Pomelli, J. W. Ochterski, 
 R. L. Martin, K. Morokuma, V. G. Zakrzewski, G. A. Voth, 
 P. Salvador, J. J. Dannenberg, S. Dapprich, A. D. Daniels, 
 O. Farkas, J. B. Foresman, J. V. Ortiz, J. Cioslowski, 
 and D. J. Fox, Gaussian, Inc., Wallingford CT, 2010.
 
 ******************************************
 Gaussian 09:  EM64L-G09RevC.01 23-Sep-2011
                 2-Mar-2021 
 ******************************************
 %chk=hexa.chk
 --------------------------------------------------
 # b3lyp/6-31g* geom=connectivity opt freq pop=full
 --------------------------------------------------
 1/14=-1,18=20,19=15,26=3,38=1,57=2/1,3;
 2/9=110,12=2,17=6,18=5,40=1/2;
 3/5=1,6=6,7=1,11=2,16=1,25=1,30=1,71=1,74=-5/1,2,3;
 4//1;
 5/5=2,38=5/2;
 6/7=3,28=1/1;
 7//1,2,3,16;
 1/14=-1,18=20,19=15/3(2);
 2/9=110/2;
 99//99;
 2/9=110/2;
 3/5=1,6=6,7=1,11=2,16=1,25=1,30=1,71=1,74=-5/1,2,3;
 4/5=5,16=3/1;
 5/5=2,38=5/2;
 7//1,2,3,16;
 1/14=-1,18=20,19=15/3(-5);
 2/9=110/2;
 6/7=3,19=2,28=1/1;
 99/9=1/99;
 -------------------
 Title Card Required
 -------------------
 Charge =  0 Multiplicity = 1
 Symbolic Z-Matrix:
 C                    -0.19235  -3.09565   0. 
 H                     0.35482  -4.00791   0. 
 H                    -1.25709  -3.12188   0. 
 C                     0.45856  -1.90711   0. 
 H                     1.5233   -1.88088   0. 
 C                    -0.32895  -0.59413   0. 
 H                    -1.39369  -0.62037   0. 
 C                     0.32895   0.59413   0. 
 H                     1.39369   0.62037   0. 
 C                    -0.45856   1.90711   0. 
 H                    -1.5233    1.88088   0. 
 C                     0.19235   3.09565   0. 
 H                    -0.35482   4.00791   0. 
 H                     1.25709   3.12188   0. 
 

 GradGradGradGradGradGradGradGradGradGradGradGradGradGradGradGradGradGrad
 Berny optimization.
 Initialization pass.
                           ----------------------------
                           !    Initial Parameters    !
                           ! (Angstroms and Degrees)  !
 --------------------------                            --------------------------
 ! Name  Definition              Value          Derivative Info.                !
 --------------------------------------------------------------------------------
 ! R1    R(1,2)                  1.0638         estimate D2E/DX2                !
 ! R2    R(1,3)                  1.0651         estimate D2E/DX2                !
 ! R3    R(1,4)                  1.3551         estimate D2E/DX2                !
 ! R4    R(4,5)                  1.0651         estimate D2E/DX2                !
 ! R5    R(4,6)                  1.531          estimate D2E/DX2                !
 ! R6    R(6,7)                  1.0651         estimate D2E/DX2                !
 ! R7    R(6,8)                  1.3582         estimate D2E/DX2                !
 ! R8    R(8,9)                  1.0651         estimate D2E/DX2                !
 ! R9    R(8,10)                 1.531          estimate D2E/DX2                !
 ! R10   R(10,11)                1.0651         estimate D2E/DX2                !
 ! R11   R(10,12)                1.3551         estimate D2E/DX2                !
 ! R12   R(12,13)                1.0638         estimate D2E/DX2                !
 ! R13   R(12,14)                1.0651         estimate D2E/DX2                !
 ! A1    A(2,1,3)              119.5433         estimate D2E/DX2                !
 ! A2    A(2,1,4)              120.3377         estimate D2E/DX2                !
 ! A3    A(3,1,4)              120.119          estimate D2E/DX2                !
 ! A4    A(1,4,5)              120.119          estimate D2E/DX2                !
 ! A5    A(1,4,6)              120.3377         estimate D2E/DX2                !
 ! A6    A(5,4,6)              119.5433         estimate D2E/DX2                !
 ! A7    A(4,6,7)              119.5433         estimate D2E/DX2                !
 ! A8    A(4,6,8)              120.0736         estimate D2E/DX2                !
 ! A9    A(7,6,8)              120.383          estimate D2E/DX2                !
 ! A10   A(6,8,9)              120.383          estimate D2E/DX2                !
 ! A11   A(6,8,10)             120.0736         estimate D2E/DX2                !
 ! A12   A(9,8,10)             119.5433         estimate D2E/DX2                !
 ! A13   A(8,10,11)            119.5433         estimate D2E/DX2                !
 ! A14   A(8,10,12)            120.3377         estimate D2E/DX2                !
 ! A15   A(11,10,12)           120.119          estimate D2E/DX2                !
 ! A16   A(10,12,13)           120.3377         estimate D2E/DX2                !
 ! A17   A(10,12,14)           120.119          estimate D2E/DX2                !
 ! A18   A(13,12,14)           119.5433         estimate D2E/DX2                !
 ! D1    D(2,1,4,5)              0.0            estimate D2E/DX2                !
 ! D2    D(2,1,4,6)            180.0            estimate D2E/DX2                !
 ! D3    D(3,1,4,5)            180.0            estimate D2E/DX2                !
 ! D4    D(3,1,4,6)              0.0            estimate D2E/DX2                !
 ! D5    D(1,4,6,7)              0.0            estimate D2E/DX2                !
 ! D6    D(1,4,6,8)            180.0            estimate D2E/DX2                !
 ! D7    D(5,4,6,7)            180.0            estimate D2E/DX2                !
 ! D8    D(5,4,6,8)              0.0            estimate D2E/DX2                !
 ! D9    D(4,6,8,9)              0.0            estimate D2E/DX2                !
 ! D10   D(4,6,8,10)           180.0            estimate D2E/DX2                !
 ! D11   D(7,6,8,9)            180.0            estimate D2E/DX2                !
 ! D12   D(7,6,8,10)             0.0            estimate D2E/DX2                !
 ! D13   D(6,8,10,11)            0.0            estimate D2E/DX2                !
 ! D14   D(6,8,10,12)          180.0            estimate D2E/DX2                !
 ! D15   D(9,8,10,11)          180.0            estimate D2E/DX2                !
 ! D16   D(9,8,10,12)            0.0            estimate D2E/DX2                !
 ! D17   D(8,10,12,13)         180.0            estimate D2E/DX2                !
 ! D18   D(8,10,12,14)           0.0            estimate D2E/DX2                !
 ! D19   D(11,10,12,13)          0.0            estimate D2E/DX2                !
 ! D20   D(11,10,12,14)        180.0            estimate D2E/DX2                !
 --------------------------------------------------------------------------------
 Trust Radius=3.00D-01 FncErr=1.00D-07 GrdErr=1.00D-06
 Number of steps in this run=     61 maximum allowed number of steps=    100.
 GradGradGradGradGradGradGradGradGradGradGradGradGradGradGradGradGradGrad

                          Input orientation:                          
 ---------------------------------------------------------------------
 Center     Atomic      Atomic             Coordinates (Angstroms)
 Number     Number       Type             X           Y           Z
 ---------------------------------------------------------------------
      1          6           0       -0.192348   -3.095647    0.000000
      2          1           0        0.354817   -4.007911    0.000000
      3          1           0       -1.257092   -3.121882    0.000000
      4          6           0        0.458560   -1.907111    0.000000
      5          1           0        1.523304   -1.880876    0.000000
      6          6           0       -0.328948   -0.594133    0.000000
      7          1           0       -1.393692   -0.620368    0.000000
      8          6           0        0.328948    0.594133    0.000000
      9          1           0        1.393692    0.620368    0.000000
     10          6           0       -0.458560    1.907111    0.000000
     11          1           0       -1.523304    1.880876    0.000000
     12          6           0        0.192348    3.095647    0.000000
     13          1           0       -0.354817    4.007911    0.000000
     14          1           0        1.257092    3.121882    0.000000
 ---------------------------------------------------------------------
                    Distance matrix (angstroms):
                    1          2          3          4          5
     1  C    0.000000
     2  H    1.063774   0.000000
     3  H    1.065067   1.839374   0.000000
     4  C    1.355100   2.103359   2.102172   0.000000
     5  H    2.102172   2.426858   3.044781   1.065067   0.000000
     6  C    2.505241   3.481582   2.692762   1.531039   2.255337
     7  H    2.751405   3.812181   2.505241   2.255337   3.177694
     8  C    3.726422   4.602116   4.040333   2.504600   2.748118
     9  H    4.040333   4.743441   4.585966   2.694926   2.504600
    10  C    5.009836   5.970684   5.091996   3.922933   4.275118
    11  H    5.151429   6.181031   5.009836   4.275118   4.840723
    12  C    6.203233   7.105415   6.384241   5.009836   5.151429
    13  H    7.105415   8.047172   7.186657   5.970684   6.181031
    14  H    6.384241   7.186657   6.730951   5.091996   5.009836
                    6          7          8          9         10
     6  C    0.000000
     7  H    1.065067   0.000000
     8  C    1.358235   2.107724   0.000000
     9  H    2.107724   3.051054   1.065067   0.000000
    10  C    2.504600   2.694926   1.531039   2.255337   0.000000
    11  H    2.748118   2.504600   2.255337   3.177694   1.065067
    12  C    3.726422   4.040333   2.505241   2.751405   1.355100
    13  H    4.602116   4.743441   3.481582   3.812181   2.103359
    14  H    4.040333   4.585966   2.692762   2.505241   2.102172
                   11         12         13         14
    11  H    0.000000
    12  C    2.102172   0.000000
    13  H    2.426858   1.063774   0.000000
    14  H    3.044781   1.065067   1.839374   0.000000
 Stoichiometry    C6H8
 Framework group  C2H[SGH(C6H8)]
 Deg. of freedom    13
 Full point group                 C2H     NOp   4
 Largest Abelian subgroup         C2H     NOp   4
 Largest concise Abelian subgroup C2      NOp   2
                         Standard orientation:                         
 ---------------------------------------------------------------------
 Center     Atomic      Atomic             Coordinates (Angstroms)
 Number     Number       Type             X           Y           Z
 ---------------------------------------------------------------------
      1          6           0        1.318255    2.807531    0.000000
      2          1           0        2.236360    3.344838    0.000000
      3          1           0        0.396988    3.341979    0.000000
      4          6           0        1.318255    1.452431    0.000000
      5          1           0        2.239522    0.917982    0.000000
      6          6           0       -0.003129    0.679110    0.000000
      7          1           0       -0.924396    1.213559    0.000000
      8          6           0        0.003129   -0.679110    0.000000
      9          1           0        0.924396   -1.213559    0.000000
     10          6           0       -1.318255   -1.452431    0.000000
     11          1           0       -2.239522   -0.917982    0.000000
     12          6           0       -1.318255   -2.807531    0.000000
     13          1           0       -2.236360   -3.344838    0.000000
     14          1           0       -0.396988   -3.341979    0.000000
 ---------------------------------------------------------------------
 Rotational constants (GHZ):     24.5803755      1.3103366      1.2440201
 Standard basis: 6-31G(d) (6D, 7F)
 There are    41 symmetry adapted basis functions of AG  symmetry.
 There are    12 symmetry adapted basis functions of BG  symmetry.
 There are    12 symmetry adapted basis functions of AU  symmetry.
 There are    41 symmetry adapted basis functions of BU  symmetry.
 Integral buffers will be    131072 words long.
 Raffenetti 2 integral format.
 Two-electron integral symmetry is turned on.
   106 basis functions,   200 primitive gaussians,   106 cartesian basis functions
    22 alpha electrons       22 beta electrons
       nuclear repulsion energy       191.5890346080 Hartrees.
 NAtoms=   14 NActive=   14 NUniq=    7 SFac= 4.00D+00 NAtFMM=   60 NAOKFM=F Big=F
 One-electron integrals computed using PRISM.
 NBasis=   106 RedAO= T  NBF=    41    12    12    41
 NBsUse=   106 1.00D-06 NBFU=    41    12    12    41
 Harris functional with IExCor=  402 diagonalized for initial guess.
 ExpMin= 1.61D-01 ExpMax= 3.05D+03 ExpMxC= 4.57D+02 IAcc=1 IRadAn=         1 AccDes= 0.00D+00
 HarFok:  IExCor=  402 AccDes= 0.00D+00 IRadAn=         1 IDoV= 1
 ScaDFX=  1.000000  1.000000  1.000000  1.000000
 FoFCou: FMM=F IPFlag=           0 FMFlag=      100000 FMFlg1=           0
         NFxFlg=           0 DoJE=T BraDBF=F KetDBF=T FulRan=T
         Omega=  0.000000  0.000000  1.000000  0.000000  0.000000 ICntrl=     500 IOpCl=  0
         NMat0=    1 NMatS0=    1 NMatT0=    0 NMatD0=    1 NMtDS0=    0 NMtDT0=    0
         I1Cent=           4 NGrid=           0.
 Petite list used in FoFCou.
 Initial guess orbital symmetries:
       Occupied  (BU) (AG) (AG) (BU) (AG) (BU) (AG) (BU) (AG) (BU)
                 (AG) (BU) (AG) (BU) (BU) (AG) (AG) (BU) (AG) (AU)
                 (BG) (AU)
       Virtual   (BG) (AU) (BG) (BU) (BU) (AG) (AG) (BU) (AG) (BU)
                 (AG) (BU) (BU) (AG) (AG) (BU) (AG) (BU) (AU) (BG)
                 (AG) (AU) (AG) (BU) (BG) (BU) (AG) (BU) (BG) (AU)
                 (AG) (BU) (AG) (AG) (BU) (BU) (AG) (BU) (BU) (AG)
                 (BU) (AG) (BU) (AG) (BU) (AG) (AU) (BG) (AG) (AU)
                 (BU) (BG) (AU) (BG) (AU) (BU) (AG) (AG) (BU) (BG)
                 (AG) (BU) (AG) (BU) (AU) (AG) (BU) (AG) (BG) (AU)
                 (BG) (BU) (AG) (BU) (AG) (BU) (BU) (AG) (AG) (BU)
                 (AG) (BU) (AG) (BU)
 The electronic state of the initial guess is 1-AG.
 Requested convergence on RMS density matrix=1.00D-08 within 128 cycles.
 Requested convergence on MAX density matrix=1.00D-06.
 Requested convergence on             energy=1.00D-06.
 No special actions if energy rises.
 Keep R1 ints in memory in canonical form, NReq=17180256.
 Integral accuracy reduced to 1.0D-05 until final iterations.
 Initial convergence to 1.0D-05 achieved.  Increase integral accuracy.
 SCF Done:  E(RB3LYP) =  -233.385592415     A.U. after   13 cycles
             Convg  =    0.4063D-08             -V/T =  2.0105

 **********************************************************************

            Population analysis using the SCF density.

 **********************************************************************

 Orbital symmetries:
       Occupied  (AG) (BU) (AG) (BU) (BU) (AG) (AG) (BU) (AG) (BU)
                 (BU) (AG) (AG) (BU) (BU) (AG) (AG) (BU) (AG) (AU)
                 (BG) (AU)
       Virtual   (BG) (AU) (BG) (BU) (BU) (AG) (AG) (AG) (BU) (BU)
                 (AG) (BU) (AG) (BU) (AG) (BU) (BU) (AG) (AU) (BG)
                 (AG) (AG) (AU) (BG) (BU) (BU) (AG) (BU) (BG) (AU)
                 (AG) (BU) (AG) (AG) (BU) (BU) (AG) (BU) (BU) (AG)
                 (BU) (AG) (BU) (AG) (BU) (AG) (AG) (AU) (BG) (BU)
                 (AU) (BG) (AU) (BG) (AU) (AG) (BU) (AG) (BU) (BG)
                 (BU) (AG) (AG) (BU) (AU) (AG) (BU) (AG) (BG) (BG)
                 (AU) (BU) (AG) (BU) (AG) (BU) (BU) (AG) (AG) (BU)
                 (AG) (BU) (AG) (BU)
 The electronic state is 1-AG.
 Alpha  occ. eigenvalues --  -10.19619 -10.19618 -10.19503 -10.19430 -10.17879
 Alpha  occ. eigenvalues --  -10.17879  -0.80469  -0.76702  -0.71615  -0.60609
 Alpha  occ. eigenvalues --   -0.56430  -0.55765  -0.47743  -0.46002  -0.42350
 Alpha  occ. eigenvalues --   -0.40489  -0.38301  -0.37149  -0.33783  -0.32585
 Alpha  occ. eigenvalues --   -0.27790  -0.21084
 Alpha virt. eigenvalues --   -0.03572   0.04000   0.08517   0.10951   0.12729
 Alpha virt. eigenvalues --    0.13440   0.14710   0.15962   0.17904   0.20009
 Alpha virt. eigenvalues --    0.20740   0.29799   0.32825   0.32865   0.36096
 Alpha virt. eigenvalues --    0.39097   0.47889   0.49529   0.52915   0.55673
 Alpha virt. eigenvalues --    0.56978   0.60415   0.60507   0.61058   0.61361
 Alpha virt. eigenvalues --    0.64122   0.67000   0.68826   0.69517   0.70499
 Alpha virt. eigenvalues --    0.83852   0.86754   0.87700   0.88614   0.89510
 Alpha virt. eigenvalues --    0.89711   0.93435   0.94890   0.97687   0.98398
 Alpha virt. eigenvalues --    1.05575   1.06576   1.08948   1.13983   1.25458
 Alpha virt. eigenvalues --    1.28020   1.32786   1.34668   1.36062   1.43458
 Alpha virt. eigenvalues --    1.43762   1.49680   1.58371   1.69044   1.73639
 Alpha virt. eigenvalues --    1.77135   1.77372   1.91540   1.98932   2.00134
 Alpha virt. eigenvalues --    2.01491   2.01723   2.12496   2.17107   2.17527
 Alpha virt. eigenvalues --    2.23487   2.30467   2.32704   2.38288   2.41876
 Alpha virt. eigenvalues --    2.42136   2.44447   2.63394   2.73656   2.79701
 Alpha virt. eigenvalues --    2.80186   2.97573   2.97905   4.06012   4.08404
 Alpha virt. eigenvalues --    4.14941   4.20032   4.35273   4.48386
     Molecular Orbital Coefficients:
                           1         2         3         4         5
                        (AG)--O   (BU)--O   (AG)--O   (BU)--O   (BU)--O
     Eigenvalues --   -10.19619 -10.19618 -10.19503 -10.19430 -10.17879
   1 1   C  1S          0.01488   0.01494  -0.00158  -0.00103   0.70179
   2        2S          0.00035   0.00039  -0.00015  -0.00006   0.03496
   3        2PX         0.00001   0.00002   0.00003   0.00000  -0.00002
   4        2PY         0.00024   0.00025   0.00001   0.00000   0.00001
   5        2PZ         0.00000   0.00000   0.00000   0.00000   0.00000
   6        3S          0.00377   0.00310  -0.00014  -0.00041  -0.00954
   7        3PX        -0.00043  -0.00063  -0.00004   0.00045   0.00012
   8        3PY        -0.00161  -0.00126  -0.00013   0.00025   0.00089
   9        3PZ         0.00000   0.00000   0.00000   0.00000   0.00000
  10        4XX        -0.00028  -0.00028   0.00005   0.00004  -0.00665
  11        4YY        -0.00036  -0.00038   0.00008   0.00005  -0.00657
  12        4ZZ        -0.00024  -0.00023  -0.00003  -0.00001  -0.00692
  13        4XY         0.00002   0.00002   0.00000  -0.00002   0.00001
  14        4XZ         0.00000   0.00000   0.00000   0.00000   0.00000
  15        4YZ         0.00000   0.00000   0.00000   0.00000   0.00000
  16 2   H  1S         -0.00004  -0.00001   0.00000  -0.00003  -0.00027
  17        2S          0.00014   0.00018   0.00018  -0.00013   0.00152
  18 3   H  1S         -0.00011  -0.00010  -0.00003   0.00005  -0.00023
  19        2S         -0.00020  -0.00034   0.00009   0.00006   0.00161
  20 4   C  1S          0.69885   0.70068  -0.06498  -0.04083  -0.01529
  21        2S          0.03456   0.03472  -0.00339  -0.00214  -0.00110
  22        2PX        -0.00002  -0.00003   0.00014   0.00016   0.00000
  23        2PY         0.00001  -0.00003   0.00006   0.00003  -0.00029
  24        2PZ         0.00000   0.00000   0.00000   0.00000   0.00000
  25        3S         -0.01023  -0.01047   0.00365   0.00382   0.00352
  26        3PX         0.00096   0.00135  -0.00102  -0.00138   0.00015
  27        3PY        -0.00115  -0.00018  -0.00091  -0.00081   0.00141
  28        3PZ         0.00000   0.00000   0.00000   0.00000   0.00000
  29        4XX        -0.00655  -0.00658   0.00031   0.00003  -0.00003
  30        4YY        -0.00640  -0.00639   0.00043   0.00017  -0.00007
  31        4ZZ        -0.00670  -0.00669   0.00050   0.00028   0.00006
  32        4XY        -0.00006  -0.00008  -0.00009  -0.00011   0.00000
  33        4XZ         0.00000   0.00000   0.00000   0.00000   0.00000
  34        4YZ         0.00000   0.00000   0.00000   0.00000   0.00000
  35 5   H  1S         -0.00034  -0.00027  -0.00005  -0.00005  -0.00004
  36        2S          0.00126   0.00126  -0.00039  -0.00010  -0.00018
  37 6   C  1S          0.06480   0.04066   0.69886   0.70101   0.00017
  38        2S          0.00300   0.00191   0.03431   0.03520   0.00002
  39        2PX        -0.00012  -0.00020   0.00004   0.00006   0.00001
  40        2PY        -0.00003  -0.00009   0.00026  -0.00028  -0.00004
  41        2PZ         0.00000   0.00000   0.00000   0.00000   0.00000
  42        3S          0.00224   0.00290  -0.00704  -0.01542  -0.00115
  43        3PX         0.00079   0.00133  -0.00149  -0.00091  -0.00005
  44        3PY         0.00086   0.00082  -0.00085   0.00269   0.00100
  45        3PZ         0.00000   0.00000   0.00000   0.00000   0.00000
  46        4XX        -0.00093  -0.00072  -0.00667  -0.00637   0.00005
  47        4YY        -0.00075  -0.00057  -0.00662  -0.00619  -0.00002
  48        4ZZ        -0.00076  -0.00048  -0.00678  -0.00660   0.00000
  49        4XY        -0.00012  -0.00008  -0.00003  -0.00008   0.00001
  50        4XZ         0.00000   0.00000   0.00000   0.00000   0.00000
  51        4YZ         0.00000   0.00000   0.00000   0.00000   0.00000
  52 7   H  1S         -0.00012  -0.00006  -0.00035  -0.00022   0.00000
  53        2S         -0.00018   0.00001   0.00108   0.00151  -0.00025
  54 8   C  1S          0.06480  -0.04066   0.69886  -0.70101  -0.00017
  55        2S          0.00300  -0.00191   0.03431  -0.03520  -0.00002
  56        2PX         0.00012  -0.00020  -0.00004   0.00006   0.00001
  57        2PY         0.00003  -0.00009  -0.00026  -0.00028  -0.00004
  58        2PZ         0.00000   0.00000   0.00000   0.00000   0.00000
  59        3S          0.00224  -0.00290  -0.00704   0.01542   0.00115
  60        3PX        -0.00079   0.00133   0.00149  -0.00091  -0.00005
  61        3PY        -0.00086   0.00082   0.00085   0.00269   0.00100
  62        3PZ         0.00000   0.00000   0.00000   0.00000   0.00000
  63        4XX        -0.00093   0.00072  -0.00667   0.00637  -0.00005
  64        4YY        -0.00075   0.00057  -0.00662   0.00619   0.00002
  65        4ZZ        -0.00076   0.00048  -0.00678   0.00660   0.00000
  66        4XY        -0.00012   0.00008  -0.00003   0.00008  -0.00001
  67        4XZ         0.00000   0.00000   0.00000   0.00000   0.00000
  68        4YZ         0.00000   0.00000   0.00000   0.00000   0.00000
  69 9   H  1S         -0.00012   0.00006  -0.00035   0.00022   0.00000
  70        2S         -0.00018  -0.00001   0.00108  -0.00151   0.00025
  71 10  C  1S          0.69885  -0.70068  -0.06498   0.04083   0.01529
  72        2S          0.03456  -0.03472  -0.00339   0.00214   0.00110
  73        2PX         0.00002  -0.00003  -0.00014   0.00016   0.00000
  74        2PY        -0.00001  -0.00003  -0.00006   0.00003  -0.00029
  75        2PZ         0.00000   0.00000   0.00000   0.00000   0.00000
  76        3S         -0.01023   0.01047   0.00365  -0.00382  -0.00352
  77        3PX        -0.00096   0.00135   0.00102  -0.00138   0.00015
  78        3PY         0.00115  -0.00018   0.00091  -0.00081   0.00141
  79        3PZ         0.00000   0.00000   0.00000   0.00000   0.00000
  80        4XX        -0.00655   0.00658   0.00031  -0.00003   0.00003
  81        4YY        -0.00640   0.00639   0.00043  -0.00017   0.00007
  82        4ZZ        -0.00670   0.00669   0.00050  -0.00028  -0.00006
  83        4XY        -0.00006   0.00008  -0.00009   0.00011   0.00000
  84        4XZ         0.00000   0.00000   0.00000   0.00000   0.00000
  85        4YZ         0.00000   0.00000   0.00000   0.00000   0.00000
  86 11  H  1S         -0.00034   0.00027  -0.00005   0.00005   0.00004
  87        2S          0.00126  -0.00126  -0.00039   0.00010   0.00018
  88 12  C  1S          0.01488  -0.01494  -0.00158   0.00103  -0.70179
  89        2S          0.00035  -0.00039  -0.00015   0.00006  -0.03496
  90        2PX        -0.00001   0.00002  -0.00003   0.00000  -0.00002
  91        2PY        -0.00024   0.00025  -0.00001   0.00000   0.00001
  92        2PZ         0.00000   0.00000   0.00000   0.00000   0.00000
  93        3S          0.00377  -0.00310  -0.00014   0.00041   0.00954
  94        3PX         0.00043  -0.00063   0.00004   0.00045   0.00012
  95        3PY         0.00161  -0.00126   0.00013   0.00025   0.00089
  96        3PZ         0.00000   0.00000   0.00000   0.00000   0.00000
  97        4XX        -0.00028   0.00028   0.00005  -0.00004   0.00665
  98        4YY        -0.00036   0.00038   0.00008  -0.00005   0.00657
  99        4ZZ        -0.00024   0.00023  -0.00003   0.00001   0.00692
 100        4XY         0.00002  -0.00002   0.00000   0.00002  -0.00001
 101        4XZ         0.00000   0.00000   0.00000   0.00000   0.00000
 102        4YZ         0.00000   0.00000   0.00000   0.00000   0.00000
 103 13  H  1S         -0.00004   0.00001   0.00000   0.00003   0.00027
 104        2S          0.00014  -0.00018   0.00018   0.00013  -0.00152
 105 14  H  1S         -0.00011   0.00010  -0.00003  -0.00005   0.00023
 106        2S         -0.00020   0.00034   0.00009  -0.00006  -0.00161
                           6         7         8         9        10
                        (AG)--O   (AG)--O   (BU)--O   (AG)--O   (BU)--O
     Eigenvalues --   -10.17879  -0.80469  -0.76702  -0.71615  -0.60609
   1 1   C  1S          0.70178  -0.05894  -0.10417  -0.10851  -0.09525
   2        2S          0.03494   0.11250   0.20055   0.21044   0.19060
   3        2PX        -0.00001  -0.00644  -0.00334   0.00901   0.02204
   4        2PY         0.00002  -0.04743  -0.06710  -0.03965   0.07796
   5        2PZ         0.00000   0.00000   0.00000   0.00000   0.00000
   6        3S         -0.00951   0.09236   0.15747   0.17009   0.16830
   7        3PX         0.00010   0.00065  -0.00216  -0.00732   0.00803
   8        3PY         0.00080  -0.01005  -0.00807   0.00061   0.03508
   9        3PZ         0.00000   0.00000   0.00000   0.00000   0.00000
  10        4XX        -0.00666  -0.00015   0.00087   0.00251   0.00820
  11        4YY        -0.00657   0.00429   0.00547   0.00289  -0.00490
  12        4ZZ        -0.00694  -0.00640  -0.01096  -0.01116  -0.00885
  13        4XY         0.00000   0.00050   0.00028  -0.00046  -0.00057
  14        4XZ         0.00000   0.00000   0.00000   0.00000   0.00000
  15        4YZ         0.00000   0.00000   0.00000   0.00000   0.00000
  16 2   H  1S         -0.00026   0.02660   0.05494   0.07118   0.10434
  17        2S          0.00156   0.00299   0.01097   0.02175   0.04216
  18 3   H  1S         -0.00024   0.03085   0.05711   0.06454   0.08735
  19        2S          0.00165   0.00668   0.01081   0.01041   0.03354
  20 4   C  1S         -0.01528  -0.09141  -0.11414  -0.05654   0.05992
  21        2S         -0.00112   0.17826   0.22478   0.11473  -0.12270
  22        2PX         0.00001  -0.03206  -0.00871   0.04541   0.05550
  23        2PY        -0.00029   0.00367   0.05652   0.11392   0.12874
  24        2PZ         0.00000   0.00000   0.00000   0.00000   0.00000
  25        3S          0.00371   0.11096   0.15342   0.06527  -0.10641
  26        3PX        -0.00015  -0.00039   0.01013   0.02853   0.00873
  27        3PY         0.00140  -0.01760  -0.00578   0.02524   0.04635
  28        3PZ         0.00000   0.00000   0.00000   0.00000   0.00000
  29        4XX        -0.00002   0.00351   0.00006  -0.00614  -0.00932
  30        4YY        -0.00008   0.00280   0.00423   0.00398   0.00808
  31        4ZZ         0.00005  -0.00976  -0.01158  -0.00507   0.00534
  32        4XY         0.00000   0.00250  -0.00110  -0.00601  -0.00111
  33        4XZ         0.00000   0.00000   0.00000   0.00000   0.00000
  34        4YZ         0.00000   0.00000   0.00000   0.00000   0.00000
  35 5   H  1S         -0.00004   0.04765   0.06223   0.03249  -0.05770
  36        2S         -0.00002   0.00602   0.00607   0.00271  -0.01799
  37 6   C  1S          0.00018  -0.12035  -0.03901   0.09496   0.07658
  38        2S         -0.00007   0.23365   0.07601  -0.19012  -0.15720
  39        2PX         0.00001   0.01765   0.04568   0.02492  -0.05641
  40        2PY        -0.00005  -0.04776   0.05376   0.09948  -0.09855
  41        2PZ         0.00000   0.00000   0.00000   0.00000   0.00000
  42        3S         -0.00004   0.16420   0.04144  -0.12980  -0.13473
  43        3PX        -0.00044  -0.00121   0.00516   0.03446  -0.00912
  44        3PY         0.00001   0.00570   0.03303   0.02012  -0.03684
  45        3PZ         0.00000   0.00000   0.00000   0.00000   0.00000
  46        4XX         0.00003   0.00172   0.00542   0.00376  -0.00800
  47        4YY         0.00002   0.00549  -0.00158  -0.00358   0.00764
  48        4ZZ        -0.00003  -0.01279  -0.00415   0.00888   0.00649
  49        4XY         0.00003   0.00127   0.00310   0.00575   0.00126
  50        4XZ         0.00000   0.00000   0.00000   0.00000   0.00000
  51        4YZ         0.00000   0.00000   0.00000   0.00000   0.00000
  52 7   H  1S         -0.00006   0.06282   0.02106  -0.05545  -0.06380
  53        2S         -0.00016   0.00824  -0.00009  -0.00239  -0.01847
  54 8   C  1S          0.00018  -0.12035   0.03901   0.09496  -0.07658
  55        2S         -0.00007   0.23365  -0.07601  -0.19012   0.15720
  56        2PX        -0.00001  -0.01765   0.04568  -0.02492  -0.05641
  57        2PY         0.00005   0.04776   0.05376  -0.09948  -0.09855
  58        2PZ         0.00000   0.00000   0.00000   0.00000   0.00000
  59        3S         -0.00004   0.16420  -0.04144  -0.12980   0.13473
  60        3PX         0.00044   0.00121   0.00516  -0.03446  -0.00912
  61        3PY        -0.00001  -0.00570   0.03303  -0.02012  -0.03684
  62        3PZ         0.00000   0.00000   0.00000   0.00000   0.00000
  63        4XX         0.00003   0.00172  -0.00542   0.00376   0.00800
  64        4YY         0.00002   0.00549   0.00158  -0.00358  -0.00764
  65        4ZZ        -0.00003  -0.01279   0.00415   0.00888  -0.00649
  66        4XY         0.00003   0.00127  -0.00310   0.00575  -0.00126
  67        4XZ         0.00000   0.00000   0.00000   0.00000   0.00000
  68        4YZ         0.00000   0.00000   0.00000   0.00000   0.00000
  69 9   H  1S         -0.00006   0.06282  -0.02106  -0.05545   0.06380
  70        2S         -0.00016   0.00824   0.00009  -0.00239   0.01847
  71 10  C  1S         -0.01528  -0.09141   0.11414  -0.05654  -0.05992
  72        2S         -0.00112   0.17826  -0.22478   0.11473   0.12270
  73        2PX        -0.00001   0.03206  -0.00871  -0.04541   0.05550
  74        2PY         0.00029  -0.00367   0.05652  -0.11392   0.12874
  75        2PZ         0.00000   0.00000   0.00000   0.00000   0.00000
  76        3S          0.00371   0.11096  -0.15342   0.06527   0.10641
  77        3PX         0.00015   0.00039   0.01013  -0.02853   0.00873
  78        3PY        -0.00140   0.01760  -0.00578  -0.02524   0.04635
  79        3PZ         0.00000   0.00000   0.00000   0.00000   0.00000
  80        4XX        -0.00002   0.00351  -0.00006  -0.00614   0.00932
  81        4YY        -0.00008   0.00280  -0.00423   0.00398  -0.00808
  82        4ZZ         0.00005  -0.00976   0.01158  -0.00507  -0.00534
  83        4XY         0.00000   0.00250   0.00110  -0.00601   0.00111
  84        4XZ         0.00000   0.00000   0.00000   0.00000   0.00000
  85        4YZ         0.00000   0.00000   0.00000   0.00000   0.00000
  86 11  H  1S         -0.00004   0.04765  -0.06223   0.03249   0.05770
  87        2S         -0.00002   0.00602  -0.00607   0.00271   0.01799
  88 12  C  1S          0.70178  -0.05894   0.10417  -0.10851   0.09525
  89        2S          0.03494   0.11250  -0.20055   0.21044  -0.19060
  90        2PX         0.00001   0.00644  -0.00334  -0.00901   0.02204
  91        2PY        -0.00002   0.04743  -0.06710   0.03965   0.07796
  92        2PZ         0.00000   0.00000   0.00000   0.00000   0.00000
  93        3S         -0.00951   0.09236  -0.15747   0.17009  -0.16830
  94        3PX        -0.00010  -0.00065  -0.00216   0.00732   0.00803
  95        3PY        -0.00080   0.01005  -0.00807  -0.00061   0.03508
  96        3PZ         0.00000   0.00000   0.00000   0.00000   0.00000
  97        4XX        -0.00666  -0.00015  -0.00087   0.00251  -0.00820
  98        4YY        -0.00657   0.00429  -0.00547   0.00289   0.00490
  99        4ZZ        -0.00694  -0.00640   0.01096  -0.01116   0.00885
 100        4XY         0.00000   0.00050  -0.00028  -0.00046   0.00057
 101        4XZ         0.00000   0.00000   0.00000   0.00000   0.00000
 102        4YZ         0.00000   0.00000   0.00000   0.00000   0.00000
 103 13  H  1S         -0.00026   0.02660  -0.05494   0.07118  -0.10434
 104        2S          0.00156   0.00299  -0.01097   0.02175  -0.04216
 105 14  H  1S         -0.00024   0.03085  -0.05711   0.06454  -0.08735
 106        2S          0.00165   0.00668  -0.01081   0.01041  -0.03354
                          11        12        13        14        15
                        (BU)--O   (AG)--O   (AG)--O   (BU)--O   (BU)--O
     Eigenvalues --    -0.56430  -0.55765  -0.47743  -0.46002  -0.42350
   1 1   C  1S         -0.02082   0.06917   0.01419  -0.00747   0.00434
   2        2S          0.04217  -0.13980  -0.03105   0.01446  -0.00948
   3        2PX        -0.06495   0.03923  -0.19585  -0.20374   0.11745
   4        2PY         0.05114  -0.14527  -0.11634   0.07927   0.28198
   5        2PZ         0.00000   0.00000   0.00000   0.00000   0.00000
   6        3S          0.02851  -0.14081  -0.02474   0.05189  -0.01703
   7        3PX        -0.02355   0.01216  -0.08532  -0.06982   0.04062
   8        3PY         0.01911  -0.04784  -0.04784   0.01961   0.10508
   9        3PZ         0.00000   0.00000   0.00000   0.00000   0.00000
  10        4XX         0.00415  -0.01077  -0.00605   0.00403   0.01326
  11        4YY        -0.00344   0.00750   0.00349  -0.00174  -0.00551
  12        4ZZ        -0.00195   0.00625   0.00087  -0.00075  -0.00003
  13        4XY         0.00120  -0.00104  -0.00356  -0.00473   0.00528
  14        4XZ         0.00000   0.00000   0.00000   0.00000   0.00000
  15        4YZ         0.00000   0.00000   0.00000   0.00000   0.00000
  16 2   H  1S          0.00539  -0.08228  -0.14056  -0.06770   0.14981
  17        2S          0.00381  -0.03991  -0.08878  -0.05312   0.12446
  18 3   H  1S          0.05973  -0.11454   0.04521   0.12922   0.02498
  19        2S          0.03404  -0.05934   0.02809   0.08799   0.02481
  20 4   C  1S          0.04853  -0.09189  -0.02035   0.00802   0.02361
  21        2S         -0.10016   0.18942   0.04818  -0.01541  -0.05166
  22        2PX        -0.12782   0.09089  -0.17977  -0.18357   0.02124
  23        2PY         0.05242  -0.07040   0.08083  -0.06777  -0.25959
  24        2PZ         0.00000   0.00000   0.00000   0.00000   0.00000
  25        3S         -0.08884   0.18411   0.00799  -0.01942  -0.03459
  26        3PX        -0.03682   0.02647  -0.03857  -0.06149   0.00650
  27        3PY         0.03104  -0.02727   0.02045  -0.05561  -0.06241
  28        3PZ         0.00000   0.00000   0.00000   0.00000   0.00000
  29        4XX         0.00115   0.00480  -0.00263  -0.00289   0.01144
  30        4YY        -0.00028  -0.00694  -0.00405   0.00232  -0.00320
  31        4ZZ         0.00431  -0.00787  -0.00035   0.00098   0.00116
  32        4XY         0.00539  -0.00709  -0.00212   0.00259   0.00322
  33        4XZ         0.00000   0.00000   0.00000   0.00000   0.00000
  34        4YZ         0.00000   0.00000   0.00000   0.00000   0.00000
  35 5   H  1S         -0.11078   0.13791  -0.08603  -0.07680   0.06734
  36        2S         -0.06041   0.06855  -0.07115  -0.06020   0.06667
  37 6   C  1S         -0.07689   0.03628   0.00867   0.00555  -0.04047
  38        2S          0.15740  -0.07442  -0.01974  -0.00415   0.08730
  39        2PX        -0.15553   0.07436   0.01248   0.22463   0.05455
  40        2PY         0.10894   0.06124   0.22130  -0.00280   0.03956
  41        2PZ         0.00000   0.00000   0.00000   0.00000   0.00000
  42        3S          0.15470  -0.07561   0.01356  -0.07708   0.12554
  43        3PX        -0.04646   0.01853   0.02816   0.06735   0.03554
  44        3PY         0.03496   0.00580   0.08180   0.04479  -0.00561
  45        3PZ         0.00000   0.00000   0.00000   0.00000   0.00000
  46        4XX         0.00486   0.00665   0.00593  -0.00469   0.00499
  47        4YY        -0.00504  -0.00372  -0.00049   0.00080  -0.00925
  48        4ZZ        -0.00687   0.00309   0.00029   0.00187  -0.00225
  49        4XY        -0.00421   0.00803   0.00235   0.00206  -0.00609
  50        4XZ         0.00000   0.00000   0.00000   0.00000   0.00000
  51        4YZ         0.00000   0.00000   0.00000   0.00000   0.00000
  52 7   H  1S          0.16226  -0.04791   0.04786  -0.11296   0.03067
  53        2S          0.08932  -0.02167   0.04146  -0.08435   0.02211
  54 8   C  1S          0.07689   0.03628   0.00867  -0.00555   0.04047
  55        2S         -0.15740  -0.07442  -0.01974   0.00415  -0.08730
  56        2PX        -0.15553  -0.07436  -0.01248   0.22463   0.05455
  57        2PY         0.10894  -0.06124  -0.22130  -0.00280   0.03956
  58        2PZ         0.00000   0.00000   0.00000   0.00000   0.00000
  59        3S         -0.15470  -0.07561   0.01356   0.07708  -0.12554
  60        3PX        -0.04646  -0.01853  -0.02816   0.06735   0.03554
  61        3PY         0.03496  -0.00580  -0.08180   0.04479  -0.00561
  62        3PZ         0.00000   0.00000   0.00000   0.00000   0.00000
  63        4XX        -0.00486   0.00665   0.00593   0.00469  -0.00499
  64        4YY         0.00504  -0.00372  -0.00049  -0.00080   0.00925
  65        4ZZ         0.00687   0.00309   0.00029  -0.00187   0.00225
  66        4XY         0.00421   0.00803   0.00235  -0.00206   0.00609
  67        4XZ         0.00000   0.00000   0.00000   0.00000   0.00000
  68        4YZ         0.00000   0.00000   0.00000   0.00000   0.00000
  69 9   H  1S         -0.16226  -0.04791   0.04786   0.11296  -0.03067
  70        2S         -0.08932  -0.02167   0.04146   0.08435  -0.02211
  71 10  C  1S         -0.04853  -0.09189  -0.02035  -0.00802  -0.02361
  72        2S          0.10016   0.18942   0.04818   0.01541   0.05166
  73        2PX        -0.12782  -0.09089   0.17977  -0.18357   0.02124
  74        2PY         0.05242   0.07040  -0.08083  -0.06777  -0.25959
  75        2PZ         0.00000   0.00000   0.00000   0.00000   0.00000
  76        3S          0.08884   0.18411   0.00799   0.01942   0.03459
  77        3PX        -0.03682  -0.02647   0.03857  -0.06149   0.00650
  78        3PY         0.03104   0.02727  -0.02045  -0.05561  -0.06241
  79        3PZ         0.00000   0.00000   0.00000   0.00000   0.00000
  80        4XX        -0.00115   0.00480  -0.00263   0.00289  -0.01144
  81        4YY         0.00028  -0.00694  -0.00405  -0.00232   0.00320
  82        4ZZ        -0.00431  -0.00787  -0.00035  -0.00098  -0.00116
  83        4XY        -0.00539  -0.00709  -0.00212  -0.00259  -0.00322
  84        4XZ         0.00000   0.00000   0.00000   0.00000   0.00000
  85        4YZ         0.00000   0.00000   0.00000   0.00000   0.00000
  86 11  H  1S          0.11078   0.13791  -0.08603   0.07680  -0.06734
  87        2S          0.06041   0.06855  -0.07115   0.06020  -0.06667
  88 12  C  1S          0.02082   0.06917   0.01419   0.00747  -0.00434
  89        2S         -0.04217  -0.13980  -0.03105  -0.01446   0.00948
  90        2PX        -0.06495  -0.03923   0.19585  -0.20374   0.11745
  91        2PY         0.05114   0.14527   0.11634   0.07927   0.28198
  92        2PZ         0.00000   0.00000   0.00000   0.00000   0.00000
  93        3S         -0.02851  -0.14081  -0.02474  -0.05189   0.01703
  94        3PX        -0.02355  -0.01216   0.08532  -0.06982   0.04062
  95        3PY         0.01911   0.04784   0.04784   0.01961   0.10508
  96        3PZ         0.00000   0.00000   0.00000   0.00000   0.00000
  97        4XX        -0.00415  -0.01077  -0.00605  -0.00403  -0.01326
  98        4YY         0.00344   0.00750   0.00349   0.00174   0.00551
  99        4ZZ         0.00195   0.00625   0.00087   0.00075   0.00003
 100        4XY        -0.00120  -0.00104  -0.00356   0.00473  -0.00528
 101        4XZ         0.00000   0.00000   0.00000   0.00000   0.00000
 102        4YZ         0.00000   0.00000   0.00000   0.00000   0.00000
 103 13  H  1S         -0.00539  -0.08228  -0.14056   0.06770  -0.14981
 104        2S         -0.00381  -0.03991  -0.08878   0.05312  -0.12446
 105 14  H  1S         -0.05973  -0.11454   0.04521  -0.12922  -0.02498
 106        2S         -0.03404  -0.05934   0.02809  -0.08799  -0.02481
                          16        17        18        19        20
                        (AG)--O   (AG)--O   (BU)--O   (AG)--O   (AU)--O
     Eigenvalues --    -0.40489  -0.38301  -0.37149  -0.33783  -0.32585
   1 1   C  1S         -0.00312   0.01801  -0.00773  -0.01075   0.00000
   2        2S          0.00537  -0.03900   0.01563   0.02290   0.00000
   3        2PX         0.21150  -0.00034   0.21219  -0.14165   0.00000
   4        2PY        -0.14651   0.19061  -0.07073  -0.10452   0.00000
   5        2PZ         0.00000   0.00000   0.00000   0.00000   0.14173
   6        3S          0.01275  -0.07536   0.03342   0.04891   0.00000
   7        3PX         0.06533  -0.00160   0.07050  -0.04104   0.00000
   8        3PY        -0.06556   0.07430  -0.02994  -0.05575   0.00000
   9        3PZ         0.00000   0.00000   0.00000   0.00000   0.09021
  10        4XX        -0.00635   0.00880  -0.00331  -0.00372   0.00000
  11        4YY         0.00223  -0.00278   0.00065   0.00063   0.00000
  12        4ZZ        -0.00033   0.00071  -0.00059  -0.00052   0.00000
  13        4XY         0.01237  -0.00233   0.01923  -0.01688   0.00000
  14        4XZ         0.00000   0.00000   0.00000   0.00000  -0.00086
  15        4YZ         0.00000   0.00000   0.00000   0.00000  -0.00808
  16 2   H  1S          0.07182   0.04478   0.11336  -0.12234   0.00000
  17        2S          0.06642   0.04977   0.10608  -0.13216   0.00000
  18 3   H  1S         -0.16037   0.05315  -0.14936   0.07345   0.00000
  19        2S         -0.13525   0.06520  -0.15002   0.08298   0.00000
  20 4   C  1S          0.01159   0.00601   0.00344   0.01912   0.00000
  21        2S         -0.01951  -0.01701  -0.00410  -0.04127   0.00000
  22        2PX        -0.00081   0.07252  -0.20324   0.23774   0.00000
  23        2PY         0.17789  -0.19312   0.08284   0.14105   0.00000
  24        2PZ         0.00000   0.00000   0.00000   0.00000   0.21974
  25        3S         -0.09118   0.01679  -0.01574  -0.11096   0.00000
  26        3PX         0.03092  -0.00012  -0.05973   0.09514   0.00000
  27        3PY         0.06167  -0.03497   0.01706   0.03460   0.00000
  28        3PZ         0.00000   0.00000   0.00000   0.00000   0.13773
  29        4XX        -0.00330   0.01378  -0.00704  -0.00278   0.00000
  30        4YY        -0.00034  -0.00871   0.00309   0.00472   0.00000
  31        4ZZ         0.00162  -0.00046   0.00102   0.00057   0.00000
  32        4XY         0.00730  -0.00918   0.01975  -0.01392   0.00000
  33        4XZ         0.00000   0.00000   0.00000   0.00000  -0.00606
  34        4YZ         0.00000   0.00000   0.00000   0.00000   0.00049
  35 5   H  1S         -0.07167   0.11223  -0.16017   0.08166   0.00000
  36        2S         -0.06090   0.12829  -0.15692   0.09392   0.00000
  37 6   C  1S         -0.01025   0.01599  -0.01990   0.00667   0.00000
  38        2S          0.01787  -0.03585   0.04286  -0.01594   0.00000
  39        2PX        -0.15369  -0.10293   0.15664  -0.22986   0.00000
  40        2PY         0.12641   0.28365   0.03522  -0.15941   0.00000
  41        2PZ         0.00000   0.00000   0.00000   0.00000   0.28761
  42        3S          0.06047  -0.06036   0.07024  -0.04174   0.00000
  43        3PX        -0.01468  -0.03467   0.05863  -0.07259   0.00000
  44        3PY         0.05913   0.06734   0.01772  -0.05285   0.00000
  45        3PZ         0.00000   0.00000   0.00000   0.00000   0.18113
  46        4XX         0.00432   0.01668  -0.00346  -0.00261   0.00000
  47        4YY         0.00022  -0.00892   0.00056   0.00359   0.00000
  48        4ZZ        -0.00139   0.00040  -0.00091  -0.00027   0.00000
  49        4XY        -0.01226  -0.01336   0.00249  -0.01721   0.00000
  50        4XZ         0.00000   0.00000   0.00000   0.00000   0.00380
  51        4YZ         0.00000   0.00000   0.00000   0.00000  -0.00761
  52 7   H  1S          0.13622   0.15318  -0.05590   0.09113   0.00000
  53        2S          0.11447   0.16981  -0.05798   0.10957   0.00000
  54 8   C  1S         -0.01025   0.01599   0.01990   0.00667   0.00000
  55        2S          0.01787  -0.03585  -0.04286  -0.01594   0.00000
  56        2PX         0.15369   0.10293   0.15664   0.22986   0.00000
  57        2PY        -0.12641  -0.28365   0.03522   0.15941   0.00000
  58        2PZ         0.00000   0.00000   0.00000   0.00000   0.28761
  59        3S          0.06047  -0.06036  -0.07024  -0.04174   0.00000
  60        3PX         0.01468   0.03467   0.05863   0.07259   0.00000
  61        3PY        -0.05913  -0.06734   0.01772   0.05285   0.00000
  62        3PZ         0.00000   0.00000   0.00000   0.00000   0.18113
  63        4XX         0.00432   0.01668   0.00346  -0.00261   0.00000
  64        4YY         0.00022  -0.00892  -0.00056   0.00359   0.00000
  65        4ZZ        -0.00139   0.00040   0.00091  -0.00027   0.00000
  66        4XY        -0.01226  -0.01336  -0.00249  -0.01721   0.00000
  67        4XZ         0.00000   0.00000   0.00000   0.00000  -0.00380
  68        4YZ         0.00000   0.00000   0.00000   0.00000   0.00761
  69 9   H  1S          0.13622   0.15318   0.05590   0.09113   0.00000
  70        2S          0.11447   0.16981   0.05798   0.10957   0.00000
  71 10  C  1S          0.01159   0.00601  -0.00344   0.01912   0.00000
  72        2S         -0.01951  -0.01701   0.00410  -0.04127   0.00000
  73        2PX         0.00081  -0.07252  -0.20324  -0.23774   0.00000
  74        2PY        -0.17789   0.19312   0.08284  -0.14105   0.00000
  75        2PZ         0.00000   0.00000   0.00000   0.00000   0.21974
  76        3S         -0.09118   0.01679   0.01574  -0.11096   0.00000
  77        3PX        -0.03092   0.00012  -0.05973  -0.09514   0.00000
  78        3PY        -0.06167   0.03497   0.01706  -0.03460   0.00000
  79        3PZ         0.00000   0.00000   0.00000   0.00000   0.13773
  80        4XX        -0.00330   0.01378   0.00704  -0.00278   0.00000
  81        4YY        -0.00034  -0.00871  -0.00309   0.00472   0.00000
  82        4ZZ         0.00162  -0.00046  -0.00102   0.00057   0.00000
  83        4XY         0.00730  -0.00918  -0.01975  -0.01392   0.00000
  84        4XZ         0.00000   0.00000   0.00000   0.00000   0.00606
  85        4YZ         0.00000   0.00000   0.00000   0.00000  -0.00049
  86 11  H  1S         -0.07167   0.11223   0.16017   0.08166   0.00000
  87        2S         -0.06090   0.12829   0.15692   0.09392   0.00000
  88 12  C  1S         -0.00312   0.01801   0.00773  -0.01075   0.00000
  89        2S          0.00537  -0.03900  -0.01563   0.02290   0.00000
  90        2PX        -0.21150   0.00034   0.21219   0.14165   0.00000
  91        2PY         0.14651  -0.19061  -0.07073   0.10452   0.00000
  92        2PZ         0.00000   0.00000   0.00000   0.00000   0.14173
  93        3S          0.01275  -0.07536  -0.03342   0.04891   0.00000
  94        3PX        -0.06533   0.00160   0.07050   0.04104   0.00000
  95        3PY         0.06556  -0.07430  -0.02994   0.05575   0.00000
  96        3PZ         0.00000   0.00000   0.00000   0.00000   0.09021
  97        4XX        -0.00635   0.00880   0.00331  -0.00372   0.00000
  98        4YY         0.00223  -0.00278  -0.00065   0.00063   0.00000
  99        4ZZ        -0.00033   0.00071   0.00059  -0.00052   0.00000
 100        4XY         0.01237  -0.00233  -0.01923  -0.01688   0.00000
 101        4XZ         0.00000   0.00000   0.00000   0.00000   0.00086
 102        4YZ         0.00000   0.00000   0.00000   0.00000   0.00808
 103 13  H  1S          0.07182   0.04478  -0.11336  -0.12234   0.00000
 104        2S          0.06642   0.04977  -0.10608  -0.13216   0.00000
 105 14  H  1S         -0.16037   0.05315   0.14936   0.07345   0.00000
 106        2S         -0.13525   0.06520   0.15002   0.08298   0.00000
                          21        22        23        24        25
                        (BG)--O   (AU)--O   (BG)--V   (AU)--V   (BG)--V
     Eigenvalues --    -0.27790  -0.21084  -0.03572   0.04000   0.08517
   1 1   C  1S          0.00000   0.00000   0.00000   0.00000   0.00000
   2        2S          0.00000   0.00000   0.00000   0.00000   0.00000
   3        2PX         0.00000   0.00000   0.00000   0.00000   0.00000
   4        2PY         0.00000   0.00000   0.00000   0.00000   0.00000
   5        2PZ         0.25762   0.27781   0.29094  -0.26468   0.12080
   6        3S          0.00000   0.00000   0.00000   0.00000   0.00000
   7        3PX         0.00000   0.00000   0.00000   0.00000   0.00000
   8        3PY         0.00000   0.00000   0.00000   0.00000   0.00000
   9        3PZ         0.18453   0.23221   0.35046  -0.41866   0.30110
  10        4XX         0.00000   0.00000   0.00000   0.00000   0.00000
  11        4YY         0.00000   0.00000   0.00000   0.00000   0.00000
  12        4ZZ         0.00000   0.00000   0.00000   0.00000   0.00000
  13        4XY         0.00000   0.00000   0.00000   0.00000   0.00000
  14        4XZ        -0.00042   0.00102   0.00201   0.00133  -0.00500
  15        4YZ        -0.01124  -0.00682   0.00983  -0.02040   0.01448
  16 2   H  1S          0.00000   0.00000   0.00000   0.00000   0.00000
  17        2S          0.00000   0.00000   0.00000   0.00000   0.00000
  18 3   H  1S          0.00000   0.00000   0.00000   0.00000   0.00000
  19        2S          0.00000   0.00000   0.00000   0.00000   0.00000
  20 4   C  1S          0.00000   0.00000   0.00000   0.00000   0.00000
  21        2S          0.00000   0.00000   0.00000   0.00000   0.00000
  22        2PX         0.00000   0.00000   0.00000   0.00000   0.00000
  23        2PY         0.00000   0.00000   0.00000   0.00000   0.00000
  24        2PZ         0.29066   0.16672  -0.17249   0.34340  -0.25198
  25        3S          0.00000   0.00000   0.00000   0.00000   0.00000
  26        3PX         0.00000   0.00000   0.00000   0.00000   0.00000
  27        3PY         0.00000   0.00000   0.00000   0.00000   0.00000
  28        3PZ         0.19527   0.11499  -0.21550   0.46652  -0.47595
  29        4XX         0.00000   0.00000   0.00000   0.00000   0.00000
  30        4YY         0.00000   0.00000   0.00000   0.00000   0.00000
  31        4ZZ         0.00000   0.00000   0.00000   0.00000   0.00000
  32        4XY         0.00000   0.00000   0.00000   0.00000   0.00000
  33        4XZ        -0.00163   0.00795   0.01010   0.00774  -0.01874
  34        4YZ         0.00904   0.01731   0.01961  -0.01197   0.00418
  35 5   H  1S          0.00000   0.00000   0.00000   0.00000   0.00000
  36        2S          0.00000   0.00000   0.00000   0.00000   0.00000
  37 6   C  1S          0.00000   0.00000   0.00000   0.00000   0.00000
  38        2S          0.00000   0.00000   0.00000   0.00000   0.00000
  39        2PX         0.00000   0.00000   0.00000   0.00000   0.00000
  40        2PY         0.00000   0.00000   0.00000   0.00000   0.00000
  41        2PZ         0.09187  -0.26963  -0.27501  -0.13433   0.33257
  42        3S          0.00000   0.00000   0.00000   0.00000   0.00000
  43        3PX         0.00000   0.00000   0.00000   0.00000   0.00000
  44        3PY         0.00000   0.00000   0.00000   0.00000   0.00000
  45        3PZ         0.07070  -0.20427  -0.29221  -0.15405   0.62697
  46        4XX         0.00000   0.00000   0.00000   0.00000   0.00000
  47        4YY         0.00000   0.00000   0.00000   0.00000   0.00000
  48        4ZZ         0.00000   0.00000   0.00000   0.00000   0.00000
  49        4XY         0.00000   0.00000   0.00000   0.00000   0.00000
  50        4XZ         0.00800   0.00475  -0.00703   0.01264  -0.01927
  51        4YZ         0.00874   0.01568  -0.01651   0.01231   0.01570
  52 7   H  1S          0.00000   0.00000   0.00000   0.00000   0.00000
  53        2S          0.00000   0.00000   0.00000   0.00000   0.00000
  54 8   C  1S          0.00000   0.00000   0.00000   0.00000   0.00000
  55        2S          0.00000   0.00000   0.00000   0.00000   0.00000
  56        2PX         0.00000   0.00000   0.00000   0.00000   0.00000
  57        2PY         0.00000   0.00000   0.00000   0.00000   0.00000
  58        2PZ        -0.09187  -0.26963   0.27501  -0.13433  -0.33257
  59        3S          0.00000   0.00000   0.00000   0.00000   0.00000
  60        3PX         0.00000   0.00000   0.00000   0.00000   0.00000
  61        3PY         0.00000   0.00000   0.00000   0.00000   0.00000
  62        3PZ        -0.07070  -0.20427   0.29221  -0.15405  -0.62697
  63        4XX         0.00000   0.00000   0.00000   0.00000   0.00000
  64        4YY         0.00000   0.00000   0.00000   0.00000   0.00000
  65        4ZZ         0.00000   0.00000   0.00000   0.00000   0.00000
  66        4XY         0.00000   0.00000   0.00000   0.00000   0.00000
  67        4XZ         0.00800  -0.00475  -0.00703  -0.01264  -0.01927
  68        4YZ         0.00874  -0.01568  -0.01651  -0.01231   0.01570
  69 9   H  1S          0.00000   0.00000   0.00000   0.00000   0.00000
  70        2S          0.00000   0.00000   0.00000   0.00000   0.00000
  71 10  C  1S          0.00000   0.00000   0.00000   0.00000   0.00000
  72        2S          0.00000   0.00000   0.00000   0.00000   0.00000
  73        2PX         0.00000   0.00000   0.00000   0.00000   0.00000
  74        2PY         0.00000   0.00000   0.00000   0.00000   0.00000
  75        2PZ        -0.29066   0.16672   0.17249   0.34340   0.25198
  76        3S          0.00000   0.00000   0.00000   0.00000   0.00000
  77        3PX         0.00000   0.00000   0.00000   0.00000   0.00000
  78        3PY         0.00000   0.00000   0.00000   0.00000   0.00000
  79        3PZ        -0.19527   0.11499   0.21550   0.46652   0.47595
  80        4XX         0.00000   0.00000   0.00000   0.00000   0.00000
  81        4YY         0.00000   0.00000   0.00000   0.00000   0.00000
  82        4ZZ         0.00000   0.00000   0.00000   0.00000   0.00000
  83        4XY         0.00000   0.00000   0.00000   0.00000   0.00000
  84        4XZ        -0.00163  -0.00795   0.01010  -0.00774  -0.01874
  85        4YZ         0.00904  -0.01731   0.01961   0.01197   0.00418
  86 11  H  1S          0.00000   0.00000   0.00000   0.00000   0.00000
  87        2S          0.00000   0.00000   0.00000   0.00000   0.00000
  88 12  C  1S          0.00000   0.00000   0.00000   0.00000   0.00000
  89        2S          0.00000   0.00000   0.00000   0.00000   0.00000
  90        2PX         0.00000   0.00000   0.00000   0.00000   0.00000
  91        2PY         0.00000   0.00000   0.00000   0.00000   0.00000
  92        2PZ        -0.25762   0.27781  -0.29094  -0.26468  -0.12080
  93        3S          0.00000   0.00000   0.00000   0.00000   0.00000
  94        3PX         0.00000   0.00000   0.00000   0.00000   0.00000
  95        3PY         0.00000   0.00000   0.00000   0.00000   0.00000
  96        3PZ        -0.18453   0.23221  -0.35046  -0.41866  -0.30110
  97        4XX         0.00000   0.00000   0.00000   0.00000   0.00000
  98        4YY         0.00000   0.00000   0.00000   0.00000   0.00000
  99        4ZZ         0.00000   0.00000   0.00000   0.00000   0.00000
 100        4XY         0.00000   0.00000   0.00000   0.00000   0.00000
 101        4XZ        -0.00042  -0.00102   0.00201  -0.00133  -0.00500
 102        4YZ        -0.01124   0.00682   0.00983   0.02040   0.01448
 103 13  H  1S          0.00000   0.00000   0.00000   0.00000   0.00000
 104        2S          0.00000   0.00000   0.00000   0.00000   0.00000
 105 14  H  1S          0.00000   0.00000   0.00000   0.00000   0.00000
 106        2S          0.00000   0.00000   0.00000   0.00000   0.00000
                          26        27        28        29        30
                        (BU)--V   (BU)--V   (AG)--V   (AG)--V   (AG)--V
     Eigenvalues --     0.10951   0.12729   0.13440   0.14710   0.15962
   1 1   C  1S          0.01693  -0.06527  -0.06606   0.05881   0.01217
   2        2S         -0.02275   0.10324   0.09923  -0.09559  -0.01480
   3        2PX         0.11371   0.02109   0.05562   0.11171   0.14952
   4        2PY        -0.03094   0.14068   0.14199  -0.02684  -0.05759
   5        2PZ         0.00000   0.00000   0.00000   0.00000   0.00000
   6        3S         -0.29912   1.02749   1.13575  -0.90680  -0.12387
   7        3PX         0.24562   0.02589   0.13312   0.18112   0.45984
   8        3PY        -0.07603   0.49455   0.42163  -0.07384  -0.16948
   9        3PZ         0.00000   0.00000   0.00000   0.00000   0.00000
  10        4XX         0.00024  -0.01088  -0.00950   0.00459  -0.00202
  11        4YY        -0.00014   0.00284   0.00221   0.00462   0.00173
  12        4ZZ         0.00231  -0.00314  -0.00398   0.00242   0.00257
  13        4XY        -0.00816  -0.00560  -0.00754  -0.01268  -0.00143
  14        4XZ         0.00000   0.00000   0.00000   0.00000   0.00000
  15        4YZ         0.00000   0.00000   0.00000   0.00000   0.00000
  16 2   H  1S         -0.01160  -0.04502  -0.05043  -0.01429   0.00859
  17        2S         -0.16779  -0.86525  -0.98703   0.11770  -0.30633
  18 3   H  1S          0.02624  -0.02043  -0.01735   0.06506   0.00614
  19        2S          0.55254  -0.70912  -0.58252   0.86371   0.71798
  20 4   C  1S         -0.03128  -0.04511  -0.03196  -0.01467  -0.04569
  21        2S          0.04592   0.06412   0.03563   0.03116   0.07888
  22        2PX         0.13258   0.06279   0.11228   0.17999   0.02183
  23        2PY        -0.06026  -0.09828  -0.07808   0.01318  -0.08433
  24        2PZ         0.00000   0.00000   0.00000   0.00000   0.00000
  25        3S          0.46267   0.84966   0.78631   0.20911   0.50970
  26        3PX         0.30684   0.14839   0.18680   0.70355  -0.08745
  27        3PY        -0.07434  -0.25253  -0.37385   0.18007  -0.32309
  28        3PZ         0.00000   0.00000   0.00000   0.00000   0.00000
  29        4XX        -0.00522  -0.00767  -0.00250   0.01544  -0.01875
  30        4YY         0.00257   0.00152   0.00139  -0.01672   0.00904
  31        4ZZ        -0.00380  -0.00179  -0.00268  -0.00172  -0.00005
  32        4XY         0.01036   0.00150   0.00423   0.00795   0.00887
  33        4XZ         0.00000   0.00000   0.00000   0.00000   0.00000
  34        4YZ         0.00000   0.00000   0.00000   0.00000   0.00000
  35 5   H  1S         -0.04536  -0.01901  -0.01434   0.00165  -0.09120
  36        2S         -0.76373  -0.70527  -0.75002  -0.72170  -0.63604
  37 6   C  1S          0.03829  -0.01928  -0.00748  -0.05399   0.06115
  38        2S         -0.06101   0.03707   0.01443   0.07151  -0.08907
  39        2PX         0.16588  -0.08340  -0.07281  -0.02810   0.09443
  40        2PY        -0.07371  -0.04228   0.07352   0.09432  -0.12877
  41        2PZ         0.00000   0.00000   0.00000   0.00000   0.00000
  42        3S         -0.50097   0.34333   0.18004   1.05679  -1.06378
  43        3PX         0.39133  -0.27505  -0.55774   0.06839   0.34851
  44        3PY        -0.23578  -0.23266   0.11379   0.46679  -0.37842
  45        3PZ         0.00000   0.00000   0.00000   0.00000   0.00000
  46        4XX         0.00493   0.01129   0.01012  -0.01098   0.01488
  47        4YY        -0.00090  -0.01492  -0.00886   0.00335  -0.00614
  48        4ZZ         0.00394  -0.00050  -0.00019  -0.00169   0.00186
  49        4XY        -0.01150   0.00508  -0.00698  -0.00453   0.00410
  50        4XZ         0.00000   0.00000   0.00000   0.00000   0.00000
  51        4YZ         0.00000   0.00000   0.00000   0.00000   0.00000
  52 7   H  1S          0.05347   0.00628   0.04011  -0.02499   0.04104
  53        2S          0.98975  -0.29099  -0.51685  -0.67038   1.09068
  54 8   C  1S         -0.03829   0.01928  -0.00748  -0.05399   0.06115
  55        2S          0.06101  -0.03707   0.01443   0.07151  -0.08907
  56        2PX         0.16588  -0.08340   0.07281   0.02810  -0.09443
  57        2PY        -0.07371  -0.04228  -0.07352  -0.09432   0.12877
  58        2PZ         0.00000   0.00000   0.00000   0.00000   0.00000
  59        3S          0.50097  -0.34333   0.18004   1.05679  -1.06378
  60        3PX         0.39133  -0.27505   0.55774  -0.06839  -0.34851
  61        3PY        -0.23578  -0.23266  -0.11379  -0.46679   0.37842
  62        3PZ         0.00000   0.00000   0.00000   0.00000   0.00000
  63        4XX        -0.00493  -0.01129   0.01012  -0.01098   0.01488
  64        4YY         0.00090   0.01492  -0.00886   0.00335  -0.00614
  65        4ZZ        -0.00394   0.00050  -0.00019  -0.00169   0.00186
  66        4XY         0.01150  -0.00508  -0.00698  -0.00453   0.00410
  67        4XZ         0.00000   0.00000   0.00000   0.00000   0.00000
  68        4YZ         0.00000   0.00000   0.00000   0.00000   0.00000
  69 9   H  1S         -0.05347  -0.00628   0.04011  -0.02499   0.04104
  70        2S         -0.98975   0.29099  -0.51685  -0.67038   1.09068
  71 10  C  1S          0.03128   0.04511  -0.03196  -0.01467  -0.04569
  72        2S         -0.04592  -0.06412   0.03563   0.03116   0.07888
  73        2PX         0.13258   0.06279  -0.11228  -0.17999  -0.02183
  74        2PY        -0.06026  -0.09828   0.07808  -0.01318   0.08433
  75        2PZ         0.00000   0.00000   0.00000   0.00000   0.00000
  76        3S         -0.46267  -0.84966   0.78631   0.20911   0.50970
  77        3PX         0.30684   0.14839  -0.18680  -0.70355   0.08745
  78        3PY        -0.07434  -0.25253   0.37385  -0.18007   0.32309
  79        3PZ         0.00000   0.00000   0.00000   0.00000   0.00000
  80        4XX         0.00522   0.00767  -0.00250   0.01544  -0.01875
  81        4YY        -0.00257  -0.00152   0.00139  -0.01672   0.00904
  82        4ZZ         0.00380   0.00179  -0.00268  -0.00172  -0.00005
  83        4XY        -0.01036  -0.00150   0.00423   0.00795   0.00887
  84        4XZ         0.00000   0.00000   0.00000   0.00000   0.00000
  85        4YZ         0.00000   0.00000   0.00000   0.00000   0.00000
  86 11  H  1S          0.04536   0.01901  -0.01434   0.00165  -0.09120
  87        2S          0.76373   0.70527  -0.75002  -0.72170  -0.63604
  88 12  C  1S         -0.01693   0.06527  -0.06606   0.05881   0.01217
  89        2S          0.02275  -0.10324   0.09923  -0.09559  -0.01480
  90        2PX         0.11371   0.02109  -0.05562  -0.11171  -0.14952
  91        2PY        -0.03094   0.14068  -0.14199   0.02684   0.05759
  92        2PZ         0.00000   0.00000   0.00000   0.00000   0.00000
  93        3S          0.29912  -1.02749   1.13575  -0.90680  -0.12387
  94        3PX         0.24562   0.02589  -0.13312  -0.18112  -0.45984
  95        3PY        -0.07603   0.49455  -0.42163   0.07384   0.16948
  96        3PZ         0.00000   0.00000   0.00000   0.00000   0.00000
  97        4XX        -0.00024   0.01088  -0.00950   0.00459  -0.00202
  98        4YY         0.00014  -0.00284   0.00221   0.00462   0.00173
  99        4ZZ        -0.00231   0.00314  -0.00398   0.00242   0.00257
 100        4XY         0.00816   0.00560  -0.00754  -0.01268  -0.00143
 101        4XZ         0.00000   0.00000   0.00000   0.00000   0.00000
 102        4YZ         0.00000   0.00000   0.00000   0.00000   0.00000
 103 13  H  1S          0.01160   0.04502  -0.05043  -0.01429   0.00859
 104        2S          0.16779   0.86525  -0.98703   0.11770  -0.30633
 105 14  H  1S         -0.02624   0.02043  -0.01735   0.06506   0.00614
 106        2S         -0.55254   0.70912  -0.58252   0.86371   0.71798
                          31        32        33        34        35
                        (BU)--V   (BU)--V   (AG)--V   (BU)--V   (AG)--V
     Eigenvalues --     0.17904   0.20009   0.20740   0.29799   0.32825
   1 1   C  1S          0.04723  -0.06042   0.03035  -0.02083   0.05155
   2        2S         -0.06832   0.08213  -0.04607   0.02015   0.01093
   3        2PX        -0.19314  -0.12569  -0.22046  -0.16418   0.04768
   4        2PY        -0.00464   0.05847  -0.04290  -0.07132  -0.09979
   5        2PZ         0.00000   0.00000   0.00000   0.00000   0.00000
   6        3S         -0.84621   1.08765  -0.33907   0.65250  -1.54419
   7        3PX        -0.78887  -0.48417  -0.96420  -0.91151   0.83672
   8        3PY         0.16657  -0.10032  -0.07563  -0.70629   1.27743
   9        3PZ         0.00000   0.00000   0.00000   0.00000   0.00000
  10        4XX        -0.00415   0.00078  -0.00338   0.01307  -0.02389
  11        4YY         0.00669  -0.00717   0.00720  -0.00969   0.01936
  12        4ZZ         0.00412  -0.00337   0.00218  -0.00379   0.00998
  13        4XY         0.00960   0.01297   0.00231  -0.02771   0.00422
  14        4XZ         0.00000   0.00000   0.00000   0.00000   0.00000
  15        4YZ         0.00000   0.00000   0.00000   0.00000   0.00000
  16 2   H  1S          0.04866   0.01803   0.03071  -0.03871  -0.03408
  17        2S          1.17167   0.06367   1.26736   0.92401  -0.50878
  18 3   H  1S         -0.01899  -0.06761  -0.00726   0.08572  -0.04474
  19        2S         -0.51037  -1.07075  -0.68393  -0.65021   0.66412
  20 4   C  1S         -0.08227   0.03897  -0.05961   0.06106  -0.06731
  21        2S          0.13753  -0.05110   0.09090  -0.09393   0.01069
  22        2PX        -0.07335  -0.06832   0.06358   0.30820  -0.15455
  23        2PY        -0.10276  -0.02332  -0.06233   0.02047   0.17694
  24        2PZ         0.00000   0.00000   0.00000   0.00000   0.00000
  25        3S          1.24149  -0.80500   1.01866  -1.08496   2.64958
  26        3PX         0.14453  -0.08596   0.50666   1.34782  -1.57437
  27        3PY         0.02480  -0.15877  -0.43050  -0.49870   0.51865
  28        3PZ         0.00000   0.00000   0.00000   0.00000   0.00000
  29        4XX        -0.00563  -0.00518  -0.00892   0.00761  -0.01429
  30        4YY        -0.00784   0.00969   0.00035   0.00880   0.02279
  31        4ZZ        -0.00004   0.00217  -0.00143  -0.00536  -0.00952
  32        4XY        -0.02298  -0.01302  -0.01910   0.01164   0.00897
  33        4XZ         0.00000   0.00000   0.00000   0.00000   0.00000
  34        4YZ         0.00000   0.00000   0.00000   0.00000   0.00000
  35 5   H  1S          0.00605   0.05089  -0.01381  -0.01866  -0.04177
  36        2S         -0.62085   0.46122  -1.08165  -1.05683   0.78481
  37 6   C  1S          0.04676   0.05889   0.02646  -0.08202   0.02529
  38        2S         -0.11315  -0.09845  -0.05624   0.12616   0.01260
  39        2PX        -0.13126   0.12498  -0.13657   0.11802  -0.17644
  40        2PY        -0.07574  -0.03516  -0.07467   0.03591   0.03914
  41        2PZ         0.00000   0.00000   0.00000   0.00000   0.00000
  42        3S         -0.07670  -0.96360  -0.05683   1.18741  -1.11671
  43        3PX        -0.20186   0.38763  -0.44044   0.30974  -1.72889
  44        3PY        -0.41902   0.05736   0.01313   0.60526  -0.73214
  45        3PZ         0.00000   0.00000   0.00000   0.00000   0.00000
  46        4XX         0.00853  -0.00049   0.01365  -0.00244   0.01152
  47        4YY         0.00839   0.01063  -0.00101  -0.01453  -0.01244
  48        4ZZ        -0.00444  -0.00022  -0.00475   0.00359   0.00208
  49        4XY         0.02795  -0.01504  -0.00383  -0.03593  -0.00969
  50        4XZ         0.00000   0.00000   0.00000   0.00000   0.00000
  51        4YZ         0.00000   0.00000   0.00000   0.00000   0.00000
  52 7   H  1S         -0.01953   0.08693   0.05275   0.02194   0.03838
  53        2S          0.10064   1.00577  -0.22253  -0.47527  -0.76733
  54 8   C  1S         -0.04676  -0.05889   0.02646   0.08202   0.02529
  55        2S          0.11315   0.09845  -0.05624  -0.12616   0.01260
  56        2PX        -0.13126   0.12498   0.13657   0.11802   0.17644
  57        2PY        -0.07574  -0.03516   0.07467   0.03591  -0.03914
  58        2PZ         0.00000   0.00000   0.00000   0.00000   0.00000
  59        3S          0.07670   0.96360  -0.05683  -1.18741  -1.11671
  60        3PX        -0.20186   0.38763   0.44044   0.30974   1.72889
  61        3PY        -0.41902   0.05736  -0.01313   0.60526   0.73214
  62        3PZ         0.00000   0.00000   0.00000   0.00000   0.00000
  63        4XX        -0.00853   0.00049   0.01365   0.00244   0.01152
  64        4YY        -0.00839  -0.01063  -0.00101   0.01453  -0.01244
  65        4ZZ         0.00444   0.00022  -0.00475  -0.00359   0.00208
  66        4XY        -0.02795   0.01504  -0.00383   0.03593  -0.00969
  67        4XZ         0.00000   0.00000   0.00000   0.00000   0.00000
  68        4YZ         0.00000   0.00000   0.00000   0.00000   0.00000
  69 9   H  1S          0.01953  -0.08693   0.05275  -0.02194   0.03838
  70        2S         -0.10064  -1.00577  -0.22253   0.47527  -0.76733
  71 10  C  1S          0.08227  -0.03897  -0.05961  -0.06106  -0.06731
  72        2S         -0.13753   0.05110   0.09090   0.09393   0.01069
  73        2PX        -0.07335  -0.06832  -0.06358   0.30820   0.15455
  74        2PY        -0.10276  -0.02332   0.06233   0.02047  -0.17694
  75        2PZ         0.00000   0.00000   0.00000   0.00000   0.00000
  76        3S         -1.24149   0.80500   1.01866   1.08496   2.64958
  77        3PX         0.14453  -0.08596  -0.50666   1.34782   1.57437
  78        3PY         0.02480  -0.15877   0.43050  -0.49870  -0.51865
  79        3PZ         0.00000   0.00000   0.00000   0.00000   0.00000
  80        4XX         0.00563   0.00518  -0.00892  -0.00761  -0.01429
  81        4YY         0.00784  -0.00969   0.00035  -0.00880   0.02279
  82        4ZZ         0.00004  -0.00217  -0.00143   0.00536  -0.00952
  83        4XY         0.02298   0.01302  -0.01910  -0.01164   0.00897
  84        4XZ         0.00000   0.00000   0.00000   0.00000   0.00000
  85        4YZ         0.00000   0.00000   0.00000   0.00000   0.00000
  86 11  H  1S         -0.00605  -0.05089  -0.01381   0.01866  -0.04177
  87        2S          0.62085  -0.46122  -1.08165   1.05683   0.78481
  88 12  C  1S         -0.04723   0.06042   0.03035   0.02083   0.05155
  89        2S          0.06832  -0.08213  -0.04607  -0.02015   0.01093
  90        2PX        -0.19314  -0.12569   0.22046  -0.16418  -0.04768
  91        2PY        -0.00464   0.05847   0.04290  -0.07132   0.09979
  92        2PZ         0.00000   0.00000   0.00000   0.00000   0.00000
  93        3S          0.84621  -1.08765  -0.33907  -0.65250  -1.54419
  94        3PX        -0.78887  -0.48417   0.96420  -0.91151  -0.83672
  95        3PY         0.16657  -0.10032   0.07563  -0.70629  -1.27743
  96        3PZ         0.00000   0.00000   0.00000   0.00000   0.00000
  97        4XX         0.00415  -0.00078  -0.00338  -0.01307  -0.02389
  98        4YY        -0.00669   0.00717   0.00720   0.00969   0.01936
  99        4ZZ        -0.00412   0.00337   0.00218   0.00379   0.00998
 100        4XY        -0.00960  -0.01297   0.00231   0.02771   0.00422
 101        4XZ         0.00000   0.00000   0.00000   0.00000   0.00000
 102        4YZ         0.00000   0.00000   0.00000   0.00000   0.00000
 103 13  H  1S         -0.04866  -0.01803   0.03071   0.03871  -0.03408
 104        2S         -1.17167  -0.06367   1.26736  -0.92401  -0.50878
 105 14  H  1S          0.01899   0.06761  -0.00726  -0.08572  -0.04474
 106        2S          0.51037   1.07075  -0.68393   0.65021   0.66412
                          36        37        38        39        40
                        (BU)--V   (AG)--V   (BU)--V   (BU)--V   (AG)--V
     Eigenvalues --     0.32865   0.36096   0.39097   0.47889   0.49529
   1 1   C  1S          0.02752   0.03347   0.03386  -0.00960   0.01014
   2        2S          0.03126  -0.01374  -0.09199  -0.12537  -0.12823
   3        2PX        -0.10601  -0.05606   0.06210  -0.02469   0.17334
   4        2PY         0.04219   0.13648   0.14989   0.37391   0.21229
   5        2PZ         0.00000   0.00000   0.00000   0.00000   0.00000
   6        3S         -1.88732  -1.49376  -0.40023  -0.12810   0.19126
   7        3PX        -0.21439  -0.46864  -0.35865  -0.05853  -0.11446
   8        3PY         1.55810   1.69011   0.88251  -0.68801  -0.23130
   9        3PZ         0.00000   0.00000   0.00000   0.00000   0.00000
  10        4XX        -0.01817  -0.02225  -0.01115   0.02507   0.00018
  11        4YY         0.00622   0.02049   0.02233  -0.04122   0.00163
  12        4ZZ         0.00709   0.00440  -0.00670  -0.00577  -0.00759
  13        4XY        -0.02641  -0.00642   0.01289  -0.00794   0.06359
  14        4XZ         0.00000   0.00000   0.00000   0.00000   0.00000
  15        4YZ         0.00000   0.00000   0.00000   0.00000   0.00000
  16 2   H  1S         -0.12535  -0.08046   0.00778   0.02148   0.18964
  17        2S          0.03344  -0.05277  -0.12596   0.08696  -0.21280
  18 3   H  1S          0.01618  -0.06910  -0.09291   0.11520  -0.15337
  19        2S         -0.44296  -0.80984  -0.51167   0.01616   0.12096
  20 4   C  1S         -0.00371  -0.03207  -0.02069  -0.00672  -0.04053
  21        2S         -0.02620   0.06224   0.00174  -0.02360   0.11136
  22        2PX         0.01840   0.08587   0.16468  -0.11888  -0.13350
  23        2PY         0.17529   0.16291   0.17327  -0.32354  -0.11663
  24        2PZ         0.00000   0.00000   0.00000   0.00000   0.00000
  25        3S          1.13631   0.99870   0.77532  -0.47209  -0.22519
  26        3PX         0.05509   0.67785   0.76302   0.40416  -0.10637
  27        3PY         2.14499   1.89872   0.41548   0.72901   0.01522
  28        3PZ         0.00000   0.00000   0.00000   0.00000   0.00000
  29        4XX         0.01091   0.01297   0.03178   0.03973  -0.00325
  30        4YY         0.00320  -0.01421  -0.03093  -0.06330  -0.04381
  31        4ZZ        -0.00846   0.00124  -0.00477   0.01256   0.02260
  32        4XY         0.02175   0.00234  -0.01664   0.00497  -0.06181
  33        4XZ         0.00000   0.00000   0.00000   0.00000   0.00000
  34        4YZ         0.00000   0.00000   0.00000   0.00000   0.00000
  35 5   H  1S          0.00008   0.02034   0.07156   0.02206   0.15185
  36        2S          0.72169   0.02098  -0.65954  -0.00531   0.04432
  37 6   C  1S         -0.06296  -0.01350   0.05895  -0.00101   0.03176
  38        2S          0.02898   0.05508  -0.06876  -0.12666   0.04436
  39        2PX         0.22551   0.15702   0.03416   0.12273  -0.30348
  40        2PY        -0.00659  -0.07976   0.28857   0.06885  -0.43125
  41        2PZ         0.00000   0.00000   0.00000   0.00000   0.00000
  42        3S          2.48050   0.08485  -2.06042   1.14499   0.06914
  43        3PX         0.69174   1.63620   0.15161   0.08219   0.05164
  44        3PY        -1.82163  -0.05832   2.34992  -0.32937   0.53838
  45        3PZ         0.00000   0.00000   0.00000   0.00000   0.00000
  46        4XX        -0.00057  -0.02347  -0.03769  -0.00815  -0.00645
  47        4YY         0.00659   0.01557   0.03850   0.02832   0.05942
  48        4ZZ        -0.00419   0.00444  -0.00051  -0.01162  -0.02269
  49        4XY         0.00452   0.00613  -0.00877   0.06906   0.00336
  50        4XZ         0.00000   0.00000   0.00000   0.00000   0.00000
  51        4YZ         0.00000   0.00000   0.00000   0.00000   0.00000
  52 7   H  1S         -0.02008   0.00258  -0.04263  -0.23713  -0.00311
  53        2S          0.71760   1.36911  -0.39696   0.05452  -0.18061
  54 8   C  1S          0.06296  -0.01350  -0.05895   0.00101   0.03176
  55        2S         -0.02898   0.05508   0.06876   0.12666   0.04436
  56        2PX         0.22551  -0.15702   0.03416   0.12273   0.30348
  57        2PY        -0.00659   0.07976   0.28857   0.06885   0.43125
  58        2PZ         0.00000   0.00000   0.00000   0.00000   0.00000
  59        3S         -2.48050   0.08485   2.06042  -1.14499   0.06914
  60        3PX         0.69174  -1.63620   0.15161   0.08219  -0.05164
[...]
 Cartesian Forces:  Max     0.000087309 RMS     0.000026132

 GradGradGradGradGradGradGradGradGradGradGradGradGradGradGradGradGradGrad
 Berny optimization.
 Internal  Forces:  Max     0.000043805 RMS     0.000015351
 Search for a local minimum.
 Step number   1 out of a maximum of    2
 All quantities printed in internal units (Hartrees-Bohrs-Radians)
 Second derivative matrix not updated -- analytic derivatives used.
 ITU=  0
     Eigenvalues ---    0.00826   0.00864   0.02143   0.02314   0.02445
     Eigenvalues ---    0.02531   0.02872   0.02976   0.03263   0.03808
     Eigenvalues ---    0.03943   0.10753   0.10845   0.11152   0.11329
     Eigenvalues ---    0.11571   0.11986   0.12551   0.13686   0.14868
     Eigenvalues ---    0.16145   0.17938   0.19396   0.34657   0.34891
     Eigenvalues ---    0.35124   0.35219   0.35547   0.36068   0.36129
     Eigenvalues ---    0.36635   0.36684   0.36808   0.58636   0.61409
     Eigenvalues ---    0.61449
 Angle between quadratic step and forces=  25.27 degrees.
 Linear search not attempted -- first point.
 Iteration  1 RMS(Cart)=  0.00016918 RMS(Int)=  0.00000002
 Iteration  2 RMS(Cart)=  0.00000002 RMS(Int)=  0.00000000
 ClnCor:  largest displacement from symmetrization is 5.52D-11 for atom    13.
 Variable       Old X    -DE/DX   Delta X   Delta X   Delta X     New X
                                 (Linear)    (Quad)   (Total)
    R1        2.05148   0.00001   0.00000   0.00005   0.00005   2.05153
    R2        2.05565  -0.00001   0.00000  -0.00004  -0.00004   2.05561
    R3        2.53803   0.00000   0.00000   0.00000   0.00000   2.53803
    R4        2.06085  -0.00003   0.00000  -0.00008  -0.00008   2.06077
    R5        2.74019  -0.00002   0.00000  -0.00005  -0.00005   2.74014
    R6        2.06179  -0.00004   0.00000  -0.00014  -0.00014   2.06165
    R7        2.55539   0.00001   0.00000   0.00003   0.00003   2.55542
    R8        2.06179  -0.00004   0.00000  -0.00014  -0.00014   2.06165
    R9        2.74019  -0.00002   0.00000  -0.00005  -0.00005   2.74014
   R10        2.06085  -0.00003   0.00000  -0.00008  -0.00008   2.06077
   R11        2.53803   0.00000   0.00000   0.00000   0.00000   2.53803
   R12        2.05148   0.00001   0.00000   0.00005   0.00005   2.05153
   R13        2.05565  -0.00001   0.00000  -0.00004  -0.00004   2.05561
    A1        2.03640  -0.00001   0.00000  -0.00007  -0.00007   2.03634
    A2        2.12522  -0.00001   0.00000  -0.00011  -0.00011   2.12510
    A3        2.12157   0.00002   0.00000   0.00018   0.00018   2.12174
    A4        2.08005  -0.00001   0.00000  -0.00009  -0.00009   2.07996
    A5        2.17272   0.00001   0.00000   0.00008   0.00008   2.17280
    A6        2.03042   0.00000   0.00000   0.00000   0.00000   2.03042
    A7        2.03655   0.00001   0.00000   0.00007   0.00007   2.03663
    A8        2.16994  -0.00003   0.00000  -0.00020  -0.00020   2.16974
    A9        2.07669   0.00002   0.00000   0.00013   0.00013   2.07682
   A10        2.07669   0.00002   0.00000   0.00013   0.00013   2.07682
   A11        2.16994  -0.00003   0.00000  -0.00020  -0.00020   2.16974
   A12        2.03655   0.00001   0.00000   0.00007   0.00007   2.03663
   A13        2.03042   0.00000   0.00000   0.00000   0.00000   2.03042
   A14        2.17272   0.00001   0.00000   0.00008   0.00008   2.17280
   A15        2.08005  -0.00001   0.00000  -0.00009  -0.00009   2.07996
   A16        2.12522  -0.00001   0.00000  -0.00011  -0.00011   2.12510
   A17        2.12157   0.00002   0.00000   0.00018   0.00018   2.12174
   A18        2.03640  -0.00001   0.00000  -0.00007  -0.00007   2.03634
    D1        0.00000   0.00000   0.00000   0.00000   0.00000   0.00000
    D2        3.14159   0.00000   0.00000   0.00000   0.00000   3.14159
    D3        3.14159   0.00000   0.00000   0.00000   0.00000   3.14159
    D4        0.00000   0.00000   0.00000   0.00000   0.00000   0.00000
    D5        0.00000   0.00000   0.00000   0.00000   0.00000   0.00000
    D6        3.14159   0.00000   0.00000   0.00000   0.00000   3.14159
    D7        3.14159   0.00000   0.00000   0.00000   0.00000   3.14159
    D8        0.00000   0.00000   0.00000   0.00000   0.00000   0.00000
    D9        0.00000   0.00000   0.00000   0.00000   0.00000   0.00000
   D10        3.14159   0.00000   0.00000   0.00000   0.00000   3.14159
   D11        3.14159   0.00000   0.00000   0.00000   0.00000   3.14159
   D12        0.00000   0.00000   0.00000   0.00000   0.00000   0.00000
   D13        0.00000   0.00000   0.00000   0.00000   0.00000   0.00000
   D14        3.14159   0.00000   0.00000   0.00000   0.00000   3.14159
   D15        3.14159   0.00000   0.00000   0.00000   0.00000   3.14159
   D16        0.00000   0.00000   0.00000   0.00000   0.00000   0.00000
   D17        3.14159   0.00000   0.00000   0.00000   0.00000   3.14159
   D18        0.00000   0.00000   0.00000   0.00000   0.00000   0.00000
   D19        0.00000   0.00000   0.00000   0.00000   0.00000   0.00000
   D20        3.14159   0.00000   0.00000   0.00000   0.00000   3.14159
         Item               Value     Threshold  Converged?
 Maximum Force            0.000044     0.000450     YES
 RMS     Force            0.000015     0.000300     YES
 Maximum Displacement     0.000476     0.001800     YES
 RMS     Displacement     0.000169     0.001200     YES
 Predicted change in Energy=-2.772552D-08
 Optimization completed.
    -- Stationary point found.
                           ----------------------------
                           !   Optimized Parameters   !
                           ! (Angstroms and Degrees)  !
 --------------------------                            --------------------------
 ! Name  Definition              Value          Derivative Info.                !
 --------------------------------------------------------------------------------
 ! R1    R(1,2)                  1.0856         -DE/DX =    0.0                 !
 ! R2    R(1,3)                  1.0878         -DE/DX =    0.0                 !
 ! R3    R(1,4)                  1.3431         -DE/DX =    0.0                 !
 ! R4    R(4,5)                  1.0906         -DE/DX =    0.0                 !
 ! R5    R(4,6)                  1.45           -DE/DX =    0.0                 !
 ! R6    R(6,7)                  1.0911         -DE/DX =    0.0                 !
 ! R7    R(6,8)                  1.3523         -DE/DX =    0.0                 !
 ! R8    R(8,9)                  1.0911         -DE/DX =    0.0                 !
 ! R9    R(8,10)                 1.45           -DE/DX =    0.0                 !
 ! R10   R(10,11)                1.0906         -DE/DX =    0.0                 !
 ! R11   R(10,12)                1.3431         -DE/DX =    0.0                 !
 ! R12   R(12,13)                1.0856         -DE/DX =    0.0                 !
 ! R13   R(12,14)                1.0878         -DE/DX =    0.0                 !
 ! A1    A(2,1,3)              116.6772         -DE/DX =    0.0                 !
 ! A2    A(2,1,4)              121.766          -DE/DX =    0.0                 !
 ! A3    A(3,1,4)              121.5568         -DE/DX =    0.0                 !
 ! A4    A(1,4,5)              119.1778         -DE/DX =    0.0                 !
 ! A5    A(1,4,6)              124.4878         -DE/DX =    0.0                 !
 ! A6    A(5,4,6)              116.3344         -DE/DX =    0.0                 !
 ! A7    A(4,6,7)              116.6859         -DE/DX =    0.0                 !
 ! A8    A(4,6,8)              124.3285         -DE/DX =    0.0                 !
 ! A9    A(7,6,8)              118.9856         -DE/DX =    0.0                 !
 ! A10   A(6,8,9)              118.9856         -DE/DX =    0.0                 !
 ! A11   A(6,8,10)             124.3285         -DE/DX =    0.0                 !
 ! A12   A(9,8,10)             116.6859         -DE/DX =    0.0                 !
 ! A13   A(8,10,11)            116.3344         -DE/DX =    0.0                 !
 ! A14   A(8,10,12)            124.4878         -DE/DX =    0.0                 !
 ! A15   A(11,10,12)           119.1778         -DE/DX =    0.0                 !
 ! A16   A(10,12,13)           121.766          -DE/DX =    0.0                 !
 ! A17   A(10,12,14)           121.5568         -DE/DX =    0.0                 !
 ! A18   A(13,12,14)           116.6772         -DE/DX =    0.0                 !
 ! D1    D(2,1,4,5)              0.0            -DE/DX =    0.0                 !
 ! D2    D(2,1,4,6)            180.0            -DE/DX =    0.0                 !
 ! D3    D(3,1,4,5)            180.0            -DE/DX =    0.0                 !
 ! D4    D(3,1,4,6)              0.0            -DE/DX =    0.0                 !
 ! D5    D(1,4,6,7)              0.0            -DE/DX =    0.0                 !
 ! D6    D(1,4,6,8)            180.0            -DE/DX =    0.0                 !
 ! D7    D(5,4,6,7)            180.0            -DE/DX =    0.0                 !
 ! D8    D(5,4,6,8)              0.0            -DE/DX =    0.0                 !
 ! D9    D(4,6,8,9)              0.0            -DE/DX =    0.0                 !
 ! D10   D(4,6,8,10)           180.0            -DE/DX =    0.0                 !
 ! D11   D(7,6,8,9)            180.0            -DE/DX =    0.0                 !
 ! D12   D(7,6,8,10)             0.0            -DE/DX =    0.0                 !
 ! D13   D(6,8,10,11)            0.0            -DE/DX =    0.0                 !
 ! D14   D(6,8,10,12)          180.0            -DE/DX =    0.0                 !
 ! D15   D(9,8,10,11)          180.0            -DE/DX =    0.0                 !
 ! D16   D(9,8,10,12)            0.0            -DE/DX =    0.0                 !
 ! D17   D(8,10,12,13)         180.0            -DE/DX =    0.0                 !
 ! D18   D(8,10,12,14)           0.0            -DE/DX =    0.0                 !
 ! D19   D(11,10,12,13)          0.0            -DE/DX =    0.0                 !
 ! D20   D(11,10,12,14)        180.0            -DE/DX =    0.0                 !
 --------------------------------------------------------------------------------
 GradGradGradGradGradGradGradGradGradGradGradGradGradGradGradGradGradGrad

 1\1\GINC-STUDENT-LENOVO-S510\Freq\RB3LYP\6-31G(d)\C6H8\STUDENT\02-Mar-
 2021\0\\#N Geom=AllCheck Guess=TCheck SCRF=Check GenChk RB3LYP/6-31G(d
 ) Freq\\Title Card Required\\0,1\C,-0.2004065935,-3.0742251034,0.\H,0.
 3702825055,-3.9977144455,0.\H,-1.2840084834,-3.1697446146,0.\C,0.39926
 94586,-1.8724698614,0.\H,1.4886503402,-1.8218848522,0.\C,-0.3035702901
 ,-0.6041455854,0.\H,-1.3937373887,-0.6480657005,0.\C,0.3035702901,0.60
 41455854,0.\H,1.3937373887,0.6480657005,0.\C,-0.3992694586,1.872469861
 4,0.\H,-1.4886503402,1.8218848522,0.\C,0.2004065935,3.0742251034,0.\H,
 -0.3702825055,3.9977144455,0.\H,1.2840084834,3.1697446146,0.\\Version=
 EM64L-G09RevC.01\State=1-AG\HF=-233.3985472\RMSD=1.568e-09\RMSF=2.613e
 -05\ZeroPoint=0.1191742\Thermal=0.1258969\Dipole=0.,0.,0.\DipoleDeriv=
 0.1252747,0.0554644,0.,-0.060225,-0.2252269,0.,0.,0.,-0.3126318,0.0014
 776,0.0714601,0.,0.0446839,-0.0753245,0.,0.,0.,0.1365,-0.1062984,-0.01
 88837,0.,0.0262303,0.0417703,0.,0.,0.,0.1388483,0.0987188,-0.2251005,0
 .,0.0188696,0.210704,0.,0.,0.,-0.0758983,-0.1192135,0.043529,0.,-0.036
 2055,0.0144376,0.,0.,0.,0.1086915,0.1206624,0.0432872,0.,0.0065919,0.0
 191415,0.,0.,0.,-0.1083728,-0.1206215,0.0302434,0.,0.0000547,0.0144982
 ,0.,0.,0.,0.1128631,0.1206624,0.0432871,0.,0.0065919,0.0191415,0.,0.,0
 .,-0.1083728,-0.1206215,0.0302435,0.,0.0000547,0.0144981,0.,0.,0.,0.11
 28631,0.0987188,-0.2251003,0.,0.0188696,0.2107042,0.,0.,0.,-0.0758983,
 -0.1192135,0.0435289,0.,-0.0362055,0.0144375,0.,0.,0.,0.1086915,0.1252
 747,0.0554645,0.,-0.060225,-0.225227,0.,0.,0.,-0.3126318,0.0014776,0.0
 714601,0.,0.0446839,-0.0753246,0.,0.,0.,0.1365,-0.1062984,-0.0188837,0
 .,0.0262303,0.0417703,0.,0.,0.,0.1388483\Polar=57.4848971,13.1019046,1
 54.5467215,0.,0.,22.3725351\PG=C02H [SGH(C6H8)]\NImag=0\\0.68137910,0.
 06944288,0.80735684,0.,0.,0.10183996,-0.14286188,0.13295624,0.,0.14154
 125,0.12838769,-0.26180952,0.,-0.13952302,0.27838723,0.,0.,-0.03155751
 ,0.,0.,0.02152303,-0.33669201,-0.02161272,0.,-0.01109962,-0.00312628,0
 .,0.35788691,-0.01799011,-0.06160089,0.,0.02452412,0.00521279,0.,0.026
 29447,0.05698493,0.,0.,-0.03350957,0.,0.,0.00220995,0.,0.,0.02208616,-
 0.20708800,-0.17677189,0.,0.01146410,0.01783311,0.,-0.01256341,-0.0304
 2759,0.,0.69437257,-0.16291882,-0.43657553,0.,-0.01518344,-0.01983496,
 0.,-0.00028120,0.00225959,0.,0.10597649,0.76416801,0.,0.,-0.04912211,0
 .,0.,0.00417630,0.,0.,0.00466532,0.,0.,0.13217356,-0.01239728,0.000327
 64,0.,0.00131661,-0.00014998,0.,0.00046296,-0.00203517,0.,-0.32663817,
 -0.01095421,0.,0.35038404,-0.03159530,0.00111568,0.,0.00023233,0.00108
 050,0.,-0.00232930,-0.00437849,0.,-0.00967073,-0.05886375,0.,0.0127439
 0,0.06134731,0.,0.,0.00520735,0.,0.,-0.00707402,0.,0.,0.01122540,0.,0.
 ,-0.04162285,0.,0.,0.02722557,0.01679364,-0.01045639,0.,-0.00152577,-0
 .00445683,0.,0.00100285,-0.00174711,0.,-0.16028169,0.08076221,0.,-0.01
 495927,0.02853288,0.,0.68856301,0.00478938,-0.05665225,0.,-0.00206788,
 -0.00210408,0.,0.00224276,0.00181792,0.,0.08237330,-0.20026225,0.,-0.0
 0187410,0.00260018,0.,0.08817556,0.75135464,0.,0.,0.00630247,0.,0.,0.0
 1204213,0.,0.,-0.00759647,0.,0.,-0.06233385,0.,0.,0.00298457,0.,0.,0.1
 3038431,0.00108548,-0.00112285,0.,0.00038171,0.00011567,0.,0.00059351,
 0.00087105,0.,-0.01449634,-0.00217269,0.,-0.00026841,0.00215530,0.,-0.
 32479008,-0.01045427,0.,0.34956116,0.00105529,0.00176142,0.,-0.0004003
 0,0.00016611,0.,-0.00105551,-0.00028570,0.,0.02836042,0.00279901,0.,0.
 00232121,-0.00433166,0.,-0.00903874,-0.05948660,0.,0.01168647,0.060815
 99,0.,0.,-0.00145646,0.,0.,-0.00026541,0.,0.,0.00028786,0.,0.,0.002873
 13,0.,0.,0.00346512,0.,0.,-0.03978770,0.,0.,0.02572012,-0.00259637,0.0
 0659488,0.,0.00090274,0.00129677,0.,0.00044060,0.00014554,0.,0.0160675
 8,0.00837028,0.,0.00073517,0.00141580,0.,-0.20631061,-0.15915164,0.,-0
 .01404179,-0.03044321,0.,0.68856301,0.00850408,0.01055649,0.,-0.000363
 09,-0.00072993,0.,-0.00032039,-0.00012934,0.,-0.01009472,-0.06063905,0
 .,-0.00161413,0.00182982,0.,-0.15915164,-0.38995381,0.,-0.00014486,0.0
 0179826,0.,0.08817556,0.75135464,0.,0.,0.00232621,0.,0.,0.00015851,0.,
 0.,-0.00001965,0.,0.,0.00474087,0.,0.,-0.00150094,0.,0.,-0.05275145,0.
 ,0.,0.00505097,0.,0.,0.13038431,0.00047434,-0.00026115,0.,-0.00001178,
 -0.00008295,0.,0.00002166,0.00024619,0.,0.00078904,0.00220221,0.,0.000
 75187,-0.00097945,0.,-0.01404179,-0.00014486,0.,-0.00005038,-0.0020586
 6,0.,-0.32479008,-0.01045427,0.,0.34956116,0.00022137,-0.00006531,0.,0
 .00008681,0.00000802,0.,0.00022862,0.00008670,0.,-0.00196947,0.0014234
 6,0.,0.00100569,-0.00027040,0.,-0.03044321,0.00179826,0.,-0.00205866,-
 0.00441928,0.,-0.00903874,-0.05948660,0.,0.01168647,0.06081599,0.,0.,0
 .00011127,0.,0.,0.00017360,0.,0.,0.00033569,0.,0.,-0.00646894,0.,0.,0.
 00022988,0.,0.,0.00505097,0.,0.,0.00973088,0.,0.,-0.03978770,0.,0.,0.0
 2572012,0.00204914,-0.00077856,0.,-0.00018391,-0.00042224,0.,-0.000058
 08,0.00008364,0.,-0.00406155,-0.00435813,0.,0.00062873,-0.00013363,0.,
 0.01606758,-0.01009472,0.,0.00078904,-0.00196947,0.,-0.16028169,0.0823
 7330,0.,-0.01449634,0.02836042,0.,0.69437257,-0.00157770,-0.00572602,0
 .,-0.00022305,-0.00018225,0.,0.00005189,0.00003513,0.,-0.00435813,0.01
 153591,0.,0.00030616,-0.00013727,0.,0.00837028,-0.06063905,0.,0.002202
 21,0.00142346,0.,0.08076221,-0.20026225,0.,-0.00217269,0.00279901,0.,0
 .10597649,0.76416801,0.,0.,-0.00003728,0.,0.,-0.00159633,0.,0.,0.00037
 139,0.,0.,0.01239568,0.,0.,-0.00021489,0.,0.,0.00474087,0.,0.,-0.00646
 894,0.,0.,-0.06233385,0.,0.,0.00287313,0.,0.,0.13217356,-0.00011021,0.
 00013211,0.,0.00001284,0.00002007,0.,0.00001282,0.00003152,0.,0.000628
 73,0.00030616,0.,0.00006830,-0.00026072,0.,0.00073517,-0.00161413,0.,0
 .00075187,0.00100569,0.,-0.01495927,-0.00187410,0.,-0.00026841,0.00232
 121,0.,-0.32663817,-0.01095421,0.,0.35038404,-0.00008923,-0.00003293,0
 .,-0.00000317,0.00001551,0.,-0.00001867,-0.00004802,0.,-0.00013363,-0.
 00013727,0.,-0.00026072,0.00007353,0.,0.00141580,0.00182982,0.,-0.0009
 7945,-0.00027040,0.,0.02853288,0.00260018,0.,0.00215530,-0.00433166,0.
 ,-0.00967073,-0.05886375,0.,0.01274390,0.06134731,0.,0.,-0.00003620,0.
 ,0.,0.00002247,0.,0.,0.00001056,0.,0.,-0.00021489,0.,0.,0.00007796,0.,
 0.,-0.00150094,0.,0.,0.00022988,0.,0.,0.00298457,0.,0.,0.00346512,0.,0
 .,-0.04162285,0.,0.,0.02722557,-0.00010239,0.00163605,0.,0.00007561,0.
 00013737,0.,-0.00000918,-0.00000295,0.,0.00204914,-0.00157770,0.,-0.00
 011021,-0.00008923,0.,-0.00259637,0.00850408,0.,0.00047434,0.00022137,
 0.,0.01679364,0.00478938,0.,0.00108548,0.00105529,0.,-0.20708800,-0.16
 291882,0.,-0.01239728,-0.03159530,0.,0.68137910,0.00163605,0.00179864,
 0.,-0.00001871,-0.00015937,0.,-0.00006754,0.00003274,0.,-0.00077856,-0
 .00572602,0.,0.00013211,-0.00003293,0.,0.00659488,0.01055649,0.,-0.000
 26115,-0.00006531,0.,-0.01045639,-0.05665225,0.,-0.00112285,0.00176142
 ,0.,-0.17677189,-0.43657553,0.,0.00032764,0.00111568,0.,0.06944288,0.8
 0735684,0.,0.,-0.00006315,0.,0.,-0.00001945,0.,0.,0.00001448,0.,0.,-0.
 00003728,0.,0.,-0.00003620,0.,0.,0.00232621,0.,0.,0.00011127,0.,0.,0.0
 0630247,0.,0.,-0.00145646,0.,0.,-0.04912211,0.,0.,0.00520735,0.,0.,0.1
 0183996,0.00007561,-0.00001871,0.,-0.00000956,-0.00001756,0.,-0.000002
 36,0.00000071,0.,-0.00018391,-0.00022305,0.,0.00001284,-0.00000317,0.,
 0.00090274,-0.00036309,0.,-0.00001178,0.00008681,0.,-0.00152577,-0.002
 06788,0.,0.00038171,-0.00040030,0.,0.01146410,-0.01518344,0.,0.0013166
 1,0.00023233,0.,-0.14286188,0.13295624,0.,0.14154125,0.00013737,-0.000
 15937,0.,-0.00001756,-0.00005603,0.,-0.00001182,0.00000598,0.,-0.00042
 224,-0.00018225,0.,0.00002007,0.00001551,0.,0.00129677,-0.00072993,0.,
 -0.00008295,0.00000802,0.,-0.00445683,-0.00210408,0.,0.00011567,0.0001
 6611,0.,0.01783311,-0.01983496,0.,-0.00014998,0.00108050,0.,0.12838769
 ,-0.26180952,0.,-0.13952302,0.27838723,0.,0.,-0.00001945,0.,0.,0.00030
 221,0.,0.,-0.00009549,0.,0.,-0.00159633,0.,0.,0.00002247,0.,0.,0.00015
 851,0.,0.,0.00017360,0.,0.,0.01204213,0.,0.,-0.00026541,0.,0.,0.004176
 30,0.,0.,-0.00707402,0.,0.,-0.03155751,0.,0.,0.02152303,-0.00000918,-0
 .00006754,0.,-0.00000236,-0.00001182,0.,0.00000336,0.00000568,0.,-0.00
 005808,0.00005189,0.,0.00001282,-0.00001867,0.,0.00044060,-0.00032039,
 0.,0.00002166,0.00022862,0.,0.00100285,0.00224276,0.,0.00059351,-0.001
 05551,0.,-0.01256341,-0.00028120,0.,0.00046296,-0.00232930,0.,-0.33669
 201,-0.02161272,0.,-0.01109962,-0.00312628,0.,0.35788691,-0.00000295,0
 .00003274,0.,0.00000071,0.00000598,0.,0.00000568,0.00000668,0.,0.00008
 364,0.00003513,0.,0.00003152,-0.00004802,0.,0.00014554,-0.00012934,0.,
 0.00024619,0.00008670,0.,-0.00174711,0.00181792,0.,0.00087105,-0.00028
 570,0.,-0.03042759,0.00225959,0.,-0.00203517,-0.00437849,0.,-0.0179901
 1,-0.06160089,0.,0.02452412,0.00521279,0.,0.02629447,0.05698493,0.,0.,
 0.00001448,0.,0.,-0.00009549,0.,0.,0.00001437,0.,0.,0.00037139,0.,0.,0
 .00001056,0.,0.,-0.00001965,0.,0.,0.00033569,0.,0.,-0.00759647,0.,0.,0
 .00028786,0.,0.,0.00466532,0.,0.,0.01122540,0.,0.,-0.03350957,0.,0.,0.
 00220995,0.,0.,0.02208616\\0.00002785,-0.00002735,0.,-0.00001328,0.000
 01049,0.,-0.00001674,0.00001243,0.,-0.00003337,-0.00002561,0.,0.000024
 95,0.00000432,0.,0.00008731,0.00000775,0.,-0.00004445,0.00000517,0.,-0
 .00008731,-0.00000775,0.,0.00004445,-0.00000517,0.,0.00003337,0.000025
 61,0.,-0.00002495,-0.00000432,0.,-0.00002785,0.00002735,0.,0.00001328,
 -0.00001049,0.,0.00001674,-0.00001243,0.\\\@


 YOU CANNOT THROW TO THE GROUND THE LETTERS OF
 THE GREEK ALPHABET AND PICK UP THE ILIAD.
        - RUFUS CHOATE, 1799-1859
 Job cpu time:  0 days  0 hours  0 minutes 36.1 seconds.
 File lengths (MBytes):  RWF=     16 Int=      0 D2E=      0 Chk=      2 Scr=      1
 Normal termination of Gaussian 09 at Tue Mar  2 12:44:04 2021.
