 Entering Gaussian System, Link 0=g09
 Input=hexa_opt.com
 Output=hexa_opt.log
 Initial command:
 /home/student/g09/l1.exe /home/student/Aniruddha_1811022/Lab_3/Gau-8582.inp -scrdir=/home/student/Aniruddha_1811022/Lab_3/
 Entering Link 1 = /home/student/g09/l1.exe PID=      8584.
  
 Copyright (c) 1988,1990,1992,1993,1995,1998,2003,2009,2011,
            Gaussian, Inc.  All Rights Reserved.
  
 This is part of the Gaussian(R) 09 program.  It is based on
 the Gaussian(R) 03 system (copyright 2003, Gaussian, Inc.),
 the Gaussian(R) 98 system (copyright 1998, Gaussian, Inc.),
 the Gaussian(R) 94 system (copyright 1995, Gaussian, Inc.),
 the Gaussian 92(TM) system (copyright 1992, Gaussian, Inc.),
 the Gaussian 90(TM) system (copyright 1990, Gaussian, Inc.),
 the Gaussian 88(TM) system (copyright 1988, Gaussian, Inc.),
 the Gaussian 86(TM) system (copyright 1986, Carnegie Mellon
 University), and the Gaussian 82(TM) system (copyright 1983,
 Carnegie Mellon University). Gaussian is a federally registered
 trademark of Gaussian, Inc.
  
 This software contains proprietary and confidential information,
 including trade secrets, belonging to Gaussian, Inc.
  
 This software is provided under written license and may be
 used, copied, transmitted, or stored only in accord with that
 written license.
  
 The following legend is applicable only to US Government
 contracts under FAR:
  
                    RESTRICTED RIGHTS LEGEND
  
 Use, reproduction and disclosure by the US Government is
 subject to restrictions as set forth in subparagraphs (a)
 and (c) of the Commercial Computer Software - Restricted
 Rights clause in FAR 52.227-19.
  
 Gaussian, Inc.
 340 Quinnipiac St., Bldg. 40, Wallingford CT 06492
  
  
 ---------------------------------------------------------------
 Warning -- This program may not be used in any manner that
 competes with the business of Gaussian, Inc. or will provide
 assistance to any competitor of Gaussian, Inc.  The licensee
 of this program is prohibited from giving any competitor of
 Gaussian, Inc. access to this program.  By using this program,
 the user acknowledges that Gaussian, Inc. is engaged in the
 business of creating and licensing software in the field of
 computational chemistry and represents and warrants to the
 licensee that it is not a competitor of Gaussian, Inc. and that
 it will not use this program in any manner prohibited above.
 ---------------------------------------------------------------
  

 Cite this work as:
 Gaussian 09, Revision C.01,
 M. J. Frisch, G. W. Trucks, H. B. Schlegel, G. E. Scuseria, 
 M. A. Robb, J. R. Cheeseman, G. Scalmani, V. Barone, B. Mennucci, 
 G. A. Petersson, H. Nakatsuji, M. Caricato, X. Li, H. P. Hratchian, 
 A. F. Izmaylov, J. Bloino, G. Zheng, J. L. Sonnenberg, M. Hada, 
 M. Ehara, K. Toyota, R. Fukuda, J. Hasegawa, M. Ishida, T. Nakajima, 
 Y. Honda, O. Kitao, H. Nakai, T. Vreven, J. A. Montgomery, Jr., 
 J. E. Peralta, F. Ogliaro, M. Bearpark, J. J. Heyd, E. Brothers, 
 K. N. Kudin, V. N. Staroverov, T. Keith, R. Kobayashi, J. Normand, 
 K. Raghavachari, A. Rendell, J. C. Burant, S. S. Iyengar, J. Tomasi, 
 M. Cossi, N. Rega, J. M. Millam, M. Klene, J. E. Knox, J. B. Cross, 
 V. Bakken, C. Adamo, J. Jaramillo, R. Gomperts, R. E. Stratmann, 
 O. Yazyev, A. J. Austin, R. Cammi, C. Pomelli, J. W. Ochterski, 
 R. L. Martin, K. Morokuma, V. G. Zakrzewski, G. A. Voth, 
 P. Salvador, J. J. Dannenberg, S. Dapprich, A. D. Daniels, 
 O. Farkas, J. B. Foresman, J. V. Ortiz, J. Cioslowski, 
 and D. J. Fox, Gaussian, Inc., Wallingford CT, 2010.
 
 ******************************************
 Gaussian 09:  EM64L-G09RevC.01 23-Sep-2011
                 2-Mar-2021 
 ******************************************
 %chk=hexa_opt.chk
 ----------------------------------------------------
 #td=(50-50,nstates=3) b3lyp/6-31g* geom=connectivity
 ----------------------------------------------------
 -------------------
 Title Card Required
 -------------------
 Charge =  0 Multiplicity = 1
 Symbolic Z-Matrix:
 C                     1.19331   2.84025   0. 
 H                     2.11629   3.41176   0. 
 H                     0.26637   3.40955   0. 
 C                     1.19331   1.49719   0. 
 H                     2.14549   0.96552   0. 
 C                    -0.00188   0.67612   0. 
 H                    -0.95774   1.20218   0. 
 C                     0.00188  -0.67612   0. 
 H                     0.95774  -1.20218   0. 
 C                    -1.19331  -1.49719   0. 
 H                    -2.14549  -0.96552   0. 
 C                    -1.19331  -2.84025   0. 
 H                    -2.11629  -3.41176   0. 
 H                    -0.26637  -3.40955   0. 
 
                    Distance matrix (angstroms):
                    1          2          3          4          5
     1  C    0.000000
     2  H    1.085596   0.000000
     3  H    1.087803   1.849922   0.000000
     4  C    1.343066   2.125442   2.125169   0.000000
     5  H    2.102681   2.446422   3.082914   1.090555   0.000000
     6  C    2.472233   3.459825   2.746553   1.450045   2.166781
     7  H    2.703755   3.785752   2.524065   2.171184   3.112235
     8  C    3.712736   4.602344   4.094222   2.478465   2.700008
     9  H    4.049290   4.757178   4.663260   2.709625   2.471774
    10  C    4.950691   5.920413   5.119248   3.829131   4.148795
    11  H    5.062753   6.109286   4.995823   4.148795   4.705462
    12  C    6.161501   7.073980   6.417994   4.950691   5.062753
    13  H    7.073980   8.029654   7.225467   5.920413   6.109286
    14  H    6.417994   7.225467   6.839871   5.119248   4.995823
                    6          7          8          9         10
     6  C    0.000000
     7  H    1.091052   0.000000
     8  C    1.352253   2.109238   0.000000
     9  H    2.109238   3.074081   1.091052   0.000000
    10  C    2.478465   2.709625   1.450045   2.171184   0.000000
    11  H    2.700008   2.471774   2.166781   3.112235   1.090555
    12  C    3.712736   4.049290   2.472233   2.703755   1.343066
    13  H    4.602344   4.757178   3.459825   3.785752   2.125442
    14  H    4.094222   4.663260   2.746553   2.524065   2.125169
                   11         12         13         14
    11  H    0.000000
    12  C    2.102681   0.000000
    13  H    2.446422   1.085596   0.000000
    14  H    3.082914   1.087803   1.849922   0.000000
 Framework group  C2H[SGH(C6H8)]
 Deg. of freedom    13
                         Standard orientation:                         
 ---------------------------------------------------------------------
 Center     Atomic      Atomic             Coordinates (Angstroms)
 Number     Number       Type             X           Y           Z
 ---------------------------------------------------------------------
      1          6           0        1.193314    2.840251    0.000000
      2          1           0        2.116294    3.411764    0.000000
      3          1           0        0.266373    3.409546    0.000000
      4          6           0        1.193314    1.497185    0.000000
      5          1           0        2.145489    0.965516    0.000000
      6          6           0       -0.001880    0.676124    0.000000
      7          1           0       -0.957735    1.202180    0.000000
      8          6           0        0.001880   -0.676124    0.000000
      9          1           0        0.957735   -1.202180    0.000000
     10          6           0       -1.193314   -1.497185    0.000000
     11          1           0       -2.145489   -0.965516    0.000000
     12          6           0       -1.193314   -2.840251    0.000000
     13          1           0       -2.116294   -3.411764    0.000000
     14          1           0       -0.266373   -3.409546    0.000000
 ---------------------------------------------------------------------
 Rotational constants (GHZ):     26.6531115      1.3308119      1.2675234
   106 basis functions,   200 primitive gaussians,   106 cartesian basis functions
    22 alpha electrons       22 beta electrons
       nuclear repulsion energy       193.6325871643 Hartrees.
 NAtoms=   14 NActive=   14 NUniq=    7 SFac= 4.00D+00 NAtFMM=   60 NAOKFM=F Big=F
 Harris functional with IExCor=  402 diagonalized for initial guess.
 ExpMin= 1.61D-01 ExpMax= 3.05D+03 ExpMxC= 4.57D+02 IAcc=1 IRadAn=         1 AccDes= 0.00D+00
 HarFok:  IExCor=  402 AccDes= 0.00D+00 IRadAn=         1 IDoV= 1
 ScaDFX=  1.000000  1.000000  1.000000  1.000000
 FoFCou: FMM=F IPFlag=           0 FMFlag=      100000 FMFlg1=           0
         NFxFlg=           0 DoJE=T BraDBF=F KetDBF=T FulRan=T
         Omega=  0.000000  0.000000  1.000000  0.000000  0.000000 ICntrl=     500 IOpCl=  0
         NMat0=    1 NMatS0=    1 NMatT0=    0 NMatD0=    1 NMtDS0=    0 NMtDT0=    0
         I1Cent=           4 NGrid=           0.
 Petite list used in FoFCou.
 Initial guess orbital symmetries:
       Occupied  (BU) (AG) (AG) (BU) (AG) (BU) (AG) (BU) (AG) (BU)
                 (AG) (BU) (AG) (BU) (BU) (AG) (AG) (BU) (AG) (AU)
                 (BG) (AU)
       Virtual   (BG) (AU) (BG) (BU) (BU) (AG) (AG) (AG) (BU) (BU)
                 (AG) (BU) (AG) (BU) (AG) (BU) (AG) (BU) (AU) (BG)
                 (AG) (AG) (AU) (BU) (BG) (BU) (AG) (BU) (BG) (AU)
                 (AG) (BU) (AG) (BU) (BU) (AG) (AG) (BU) (AG) (BU)
                 (BU) (AG) (BU) (AG) (BU) (AU) (AG) (BG) (AG) (AU)
                 (BG) (BU) (AU) (BG) (AU) (AG) (BU) (AG) (AG) (BU)
                 (BG) (BU) (AG) (BU) (AU) (AG) (BU) (AG) (BG) (BU)
                 (AU) (BG) (AG) (BU) (AG) (BU) (AG) (BU) (AG) (BU)
                 (AG) (BU) (AG) (BU)
 The electronic state of the initial guess is 1-AG.
 Integral accuracy reduced to 1.0D-05 until final iterations.
 Initial convergence to 1.0D-05 achieved.  Increase integral accuracy.
 SCF Done:  E(RB3LYP) =  -233.398547218     A.U. after   13 cycles
             Convg  =    0.3435D-08             -V/T =  2.0102
 ExpMin= 1.61D-01 ExpMax= 3.05D+03 ExpMxC= 4.57D+02 IAcc=3 IRadAn=         5 AccDes= 0.00D+00
 HarFok:  IExCor=  205 AccDes= 0.00D+00 IRadAn=         5 IDoV=-2
 ScaDFX=  1.000000  1.000000  1.000000  1.000000
 NROrb=    100 NOA=    16 NOB=    16 NVA=    84 NVB=    84
 Would need an additional    20100000 words for in-memory AO integral storage.
 Orbital symmetries:
       Occupied  (AG) (BU) (AG) (BU) (BU) (AG) (AG) (BU) (AG) (BU)
                 (BU) (AG) (AG) (BU) (BU) (AG) (AG) (BU) (AG) (AU)
                 (BG) (AU)
       Virtual   (BG) (AU) (BU) (BG) (BU) (AG) (AG) (AG) (BU) (BU)
                 (AG) (BU) (AG) (BU) (AG) (BU) (BU) (AG) (AU) (BG)
                 (AG) (AG) (AU) (BG) (BU) (BU) (AG) (BU) (BG) (AU)
                 (AG) (BU) (AG) (BU) (BU) (AG) (AG) (BU) (AG) (BU)
                 (BU) (AG) (BU) (AG) (BU) (AG) (AU) (AG) (BG) (AU)
                 (BU) (BG) (AU) (BG) (AU) (AG) (BU) (AG) (BU) (AG)
                 (BG) (BU) (AG) (BU) (AU) (AG) (BU) (AG) (BG) (BU)
                 (AU) (BG) (AG) (BU) (BU) (AG) (AG) (BU) (AG) (BU)
                 (AG) (BU) (AG) (BU)
    24 initial guesses have been made.
 Iteration     1 Dimension    24 NMult    24
 New state      1 was old state      2
 New state      2 was old state      4
 No map to state      3
 New state      4 was old state      1
 New state      5 was old state      3
 No map to state      6
 Iteration     2 Dimension    36 NMult    36
 Renormalizing I=  5 Err= 8.19D-03
 Renormalizing I=  6 Err= 1.91D-01
 New state      3 was old state      4
 New state      4 was old state      3
 Iteration     3 Dimension    48 NMult    48
 Renormalizing I=  5 Err= 8.16D-03
 Renormalizing I=  6 Err= 1.86D-01
 Iteration     4 Dimension    60 NMult    60
 Renormalizing I=  5 Err= 8.24D-03
 Renormalizing I=  6 Err= 1.86D-01
 Iteration     5 Dimension    66 NMult    66
 Renormalizing I=  5 Err= 8.24D-03
 Renormalizing I=  6 Err= 1.86D-01
 Iteration     6 Dimension    68 NMult    68
 Renormalizing I=  5 Err= 8.24D-03
 Renormalizing I=  6 Err= 1.86D-01
 ***********************************************************************
 Excited states from <AA,BB:AA,BB> singles matrix:
 ***********************************************************************
 
 Ground to excited state transition densities written to RWF  633
 Ground to excited state transition electric dipole moments (Au):
       state          X           Y           Z        Dip. S.      Osc.
         1         0.0000      0.0000      0.0000      0.0000      0.0000
         2         0.0000      0.0000      0.0000      0.0000      0.0000
         3        -1.0232     -2.7743      0.0000      8.7434      1.0432
         4         0.0000      0.0000      0.0000      0.0000      0.0000
         5         0.0000      0.0000      0.0000      0.0000      0.0000
         6         0.0000      0.0000      0.0000      0.0000      0.0000
 Ground to excited state transition velocity dipole moments (Au):
       state          X           Y           Z        Dip. S.      Osc.
         1         0.0000      0.0000      0.0000      0.0000      0.0000
         2         0.0000      0.0000      0.0000      0.0000      0.0000
         3         0.1726      0.4838      0.0000      0.2638      0.9827
         4         0.0000      0.0000      0.0000      0.0000      0.0000
         5         0.0000      0.0000      0.0000      0.0000      0.0000
         6         0.0000      0.0000      0.0000      0.0000      0.0000
 Ground to excited state transition magnetic dipole moments (Au):
       state          X           Y           Z
         1         0.0000      0.0000      0.0000
         2         0.0000      0.0000      0.0000
         3         0.0000      0.0000      0.0000
         4         0.0000      0.0000      0.0000
         5         0.0000      0.0000     -0.1260
         6         0.0675     -0.2590      0.0000
 Ground to excited state transition velocity quadrupole moments (Au):
       state          XX          YY          ZZ          XY          XZ          YZ
         1         0.0000      0.0000      0.0000      0.0000      0.0000      0.0000
         2         0.0000      0.0000      0.0000      0.0000      0.0000      0.0000
         3         0.0000      0.0000      0.0000      0.0000      0.0000      0.0000
         4         0.0000      0.0000      0.0000      0.0000      0.0000      0.0000
         5         0.0317      0.2724     -0.0174      0.1020      0.0000      0.0000
         6         0.0000      0.0000      0.0000      0.0000      0.0276     -0.0006
 <0|del|b> * <b|rxdel|0> + <0|del|b> * <b|delr+rdel|0>
 Rotatory Strengths (R) in cgs (10**-40 erg-esu-cm/Gauss)
       state          XX          YY          ZZ    R(velocity)
         1         0.0000      0.0000      0.0000      0.0000
         2         0.0000      0.0000      0.0000      0.0000
         3         0.0000      0.0000      0.0000      0.0000
         4         0.0000      0.0000      0.0000      0.0000
         5         0.0000      0.0000      0.0000      0.0000
         6         0.0000      0.0000      0.0000      0.0000
 1/2[<0|r|b>*<b|rxdel|0> + (<0|rxdel|b>*<b|r|0>)*]
 Rotatory Strengths (R) in cgs (10**-40 erg-esu-cm/Gauss)
       state          XX          YY          ZZ     R(length)
         1         0.0000      0.0000      0.0000      0.0000
         2         0.0000      0.0000      0.0000      0.0000
         3         0.0000      0.0000      0.0000      0.0000
         4         0.0000      0.0000      0.0000      0.0000
         5         0.0000      0.0000      0.0000      0.0000
         6         0.0000      0.0000      0.0000      0.0000
  1/2[<0|del|b>*<b|r|0> + (<0|r|b>*<b|del|0>)*] (Au)
       state          X           Y           Z        Dip. S.   Osc.(frdel)
         1         0.0000      0.0000      0.0000      0.0000      0.0000
         2         0.0000      0.0000      0.0000      0.0000      0.0000
         3        -0.1766     -1.3421      0.0000      1.5187      1.0125
         4         0.0000      0.0000      0.0000      0.0000      0.0000
         5         0.0000      0.0000      0.0000      0.0000      0.0000
         6         0.0000      0.0000      0.0000      0.0000      0.0000

 Excitation energies and oscillator strengths:
 
 Excited State   1:      Triplet-BU     2.0826 eV  595.34 nm  f=0.0000  <S**2>=2.000
      21 -> 24        -0.14864
      22 -> 23         0.71152
      22 <- 23         0.17236
 This state for optimization and/or second-order correction.
 Total Energy, E(TD-HF/TD-KS) =  -233.322013673    
 Copying the excited state density for this state as the 1-particle RhoCI density.
 
 Excited State   2:      Triplet-AG     3.9596 eV  313.12 nm  f=0.0000  <S**2>=2.000
      20 -> 24        -0.11843
      21 -> 23         0.55141
      21 -> 26         0.10085
      22 -> 24        -0.42790
 
 Excited State   3:      Singlet-BU     4.8700 eV  254.59 nm  f=1.0432  <S**2>=0.000
      22 -> 23         0.71218
      22 <- 23        -0.12135
 
 Excited State   4:      Triplet-BU     5.2383 eV  236.69 nm  f=0.0000  <S**2>=2.000
      20 -> 23         0.53179
      21 -> 24        -0.26906
      22 -> 26         0.38336
 
 Excited State   5:      Singlet-AG     5.8185 eV  213.09 nm  f=0.0000  <S**2>=0.000
      21 -> 23         0.55201
      22 -> 24         0.43921
 
 Excited State   6:      Singlet-BG     5.8664 eV  211.35 nm  f=0.0000  <S**2>=0.000
      19 -> 23         0.70350
 SavETr:  write IOETrn=   770 NScale= 10 NData=  16 NLR=1 LETran=     118.

 **********************************************************************

            Population analysis using the SCF density.

 **********************************************************************

 Orbital symmetries:
       Occupied  (AG) (BU) (AG) (BU) (BU) (AG) (AG) (BU) (AG) (BU)
                 (BU) (AG) (AG) (BU) (BU) (AG) (AG) (BU) (AG) (AU)
                 (BG) (AU)
       Virtual   (BG) (AU) (BU) (BG) (BU) (AG) (AG) (AG) (BU) (BU)
                 (AG) (BU) (AG) (BU) (AG) (BU) (BU) (AG) (AU) (BG)
                 (AG) (AG) (AU) (BG) (BU) (BU) (AG) (BU) (BG) (AU)
                 (AG) (BU) (AG) (BU) (BU) (AG) (AG) (BU) (AG) (BU)
                 (BU) (AG) (BU) (AG) (BU) (AG) (AU) (AG) (BG) (AU)
                 (BU) (BG) (AU) (BG) (AU) (AG) (BU) (AG) (BU) (AG)
                 (BG) (BU) (AG) (BU) (AU) (AG) (BU) (AG) (BG) (BU)
                 (AU) (BG) (AG) (BU) (BU) (AG) (AG) (BU) (AG) (BU)
                 (AG) (BU) (AG) (BU)
 The electronic state is 1-AG.
 Alpha  occ. eigenvalues --  -10.19336 -10.19332 -10.19278 -10.19206 -10.18406
 Alpha  occ. eigenvalues --  -10.18406  -0.81676  -0.77584  -0.71720  -0.61903
 Alpha  occ. eigenvalues --   -0.55721  -0.55311  -0.48262  -0.45762  -0.42841
 Alpha  occ. eigenvalues --   -0.40308  -0.37952  -0.36115  -0.34450  -0.33753
 Alpha  occ. eigenvalues --   -0.28591  -0.20924
 Alpha virt. eigenvalues --   -0.04436   0.04761   0.10068   0.10229   0.12385
 Alpha virt. eigenvalues --    0.13063   0.14325   0.16378   0.18673   0.18731
 Alpha virt. eigenvalues --    0.21033   0.31116   0.33529   0.35104   0.37419
 Alpha virt. eigenvalues --    0.41079   0.47606   0.49947   0.52354   0.55262
 Alpha virt. eigenvalues --    0.59003   0.59882   0.60205   0.61551   0.61958
 Alpha virt. eigenvalues --    0.64730   0.67366   0.69024   0.69479   0.71185
 Alpha virt. eigenvalues --    0.82793   0.85084   0.86142   0.87108   0.88375
 Alpha virt. eigenvalues --    0.89474   0.92668   0.93989   0.97043   0.98984
 Alpha virt. eigenvalues --    1.05643   1.07063   1.10469   1.14548   1.27095
 Alpha virt. eigenvalues --    1.28167   1.32591   1.33743   1.35376   1.43525
 Alpha virt. eigenvalues --    1.46429   1.50754   1.60358   1.70073   1.75524
 Alpha virt. eigenvalues --    1.81678   1.83350   1.90137   1.97222   1.98035
 Alpha virt. eigenvalues --    1.98455   2.01380   2.10989   2.15461   2.18532
 Alpha virt. eigenvalues --    2.26253   2.28712   2.35451   2.40052   2.42184
 Alpha virt. eigenvalues --    2.48423   2.48881   2.62686   2.75132   2.86273
 Alpha virt. eigenvalues --    2.86854   3.04076   3.04900   4.08719   4.09945
 Alpha virt. eigenvalues --    4.14492   4.20206   4.35794   4.50415
          Condensed to atoms (all electrons):
 Mulliken atomic charges:
              1
     1  C   -0.355235
     2  H    0.144705
     3  H    0.141246
     4  C   -0.060004
     5  H    0.126804
     6  C   -0.121722
     7  H    0.124206
     8  C   -0.121722
     9  H    0.124206
    10  C   -0.060004
    11  H    0.126804
    12  C   -0.355235
    13  H    0.144705
    14  H    0.141246
 Sum of Mulliken atomic charges =   0.00000
 Mulliken charges with hydrogens summed into heavy atoms:
              1
     1  C   -0.069285
     4  C    0.066801
     6  C    0.002484
     8  C    0.002484
    10  C    0.066801
    12  C   -0.069285
 Sum of Mulliken charges with hydrogens summed into heavy atoms =   0.00000
 Electronic spatial extent (au):  <R**2>=            918.5326
 Charge=              0.0000 electrons
 Dipole moment (field-independent basis, Debye):
    X=              0.0000    Y=              0.0000    Z=              0.0000  Tot=              0.0000
 1\1\GINC-STUDENT-LENOVO-S510\SP\RB3LYP TD-FC\6-31G(d)\C6H8\STUDENT\02-
 Mar-2021\0\\#td=(50-50,nstates=3) b3lyp/6-31g* geom=connectivity\\Titl
 e Card Required\\0,1\C,0,1.193314,2.840251,0.\H,0,2.116294,3.411764,0.
 \H,0,0.266373,3.409546,0.\C,0,1.193314,1.497185,0.\H,0,2.145489,0.9655
 16,0.\C,0,-0.00188,0.676124,0.\H,0,-0.957735,1.20218,0.\C,0,0.00188,-0
 .676124,0.\H,0,0.957735,-1.20218,0.\C,0,-1.193314,-1.497185,0.\H,0,-2.
 145489,-0.965516,0.\C,0,-1.193314,-2.840251,0.\H,0,-2.116294,-3.411764
 ,0.\H,0,-0.266373,-3.409546,0.\\Version=EM64L-G09RevC.01\State=1-AG\HF
 =-233.3985472\RMSD=3.435e-09\PG=C02H [SGH(C6H8)]\\@


 ERWIN WITH HIS PSI CAN DO
 CALCULATIONS QUITE A FEW.
 BUT ONE THING HAS NOT BEEN SEEN
 JUST WHAT DOES PSI REALLY MEAN.
 -- WALTER HUCKEL, TRANS. BY FELIX BLOCH
 Job cpu time:  0 days  0 hours  1 minutes 22.9 seconds.
 File lengths (MBytes):  RWF=     33 Int=      0 D2E=      0 Chk=      4 Scr=      1
 Normal termination of Gaussian 09 at Tue Mar  2 12:50:54 2021.
