 Entering Gaussian System, Link 0=g09
 Input=hexa_2cis.com
 Output=hexa_2cis.log
 Initial command:
 /home/student/g09/l1.exe /home/student/Aniruddha_1811022/Lab_3/Gau-8516.inp -scrdir=/home/student/Aniruddha_1811022/Lab_3/
 Entering Link 1 = /home/student/g09/l1.exe PID=      8518.
  
 Copyright (c) 1988,1990,1992,1993,1995,1998,2003,2009,2011,
            Gaussian, Inc.  All Rights Reserved.
  
 This is part of the Gaussian(R) 09 program.  It is based on
 the Gaussian(R) 03 system (copyright 2003, Gaussian, Inc.),
 the Gaussian(R) 98 system (copyright 1998, Gaussian, Inc.),
 the Gaussian(R) 94 system (copyright 1995, Gaussian, Inc.),
 the Gaussian 92(TM) system (copyright 1992, Gaussian, Inc.),
 the Gaussian 90(TM) system (copyright 1990, Gaussian, Inc.),
 the Gaussian 88(TM) system (copyright 1988, Gaussian, Inc.),
 the Gaussian 86(TM) system (copyright 1986, Carnegie Mellon
 University), and the Gaussian 82(TM) system (copyright 1983,
 Carnegie Mellon University). Gaussian is a federally registered
 trademark of Gaussian, Inc.
  
 This software contains proprietary and confidential information,
 including trade secrets, belonging to Gaussian, Inc.
  
 This software is provided under written license and may be
 used, copied, transmitted, or stored only in accord with that
 written license.
  
 The following legend is applicable only to US Government
 contracts under FAR:
  
                    RESTRICTED RIGHTS LEGEND
  
 Use, reproduction and disclosure by the US Government is
 subject to restrictions as set forth in subparagraphs (a)
 and (c) of the Commercial Computer Software - Restricted
 Rights clause in FAR 52.227-19.
  
 Gaussian, Inc.
 340 Quinnipiac St., Bldg. 40, Wallingford CT 06492
  
  
 ---------------------------------------------------------------
 Warning -- This program may not be used in any manner that
 competes with the business of Gaussian, Inc. or will provide
 assistance to any competitor of Gaussian, Inc.  The licensee
 of this program is prohibited from giving any competitor of
 Gaussian, Inc. access to this program.  By using this program,
 the user acknowledges that Gaussian, Inc. is engaged in the
 business of creating and licensing software in the field of
 computational chemistry and represents and warrants to the
 licensee that it is not a competitor of Gaussian, Inc. and that
 it will not use this program in any manner prohibited above.
 ---------------------------------------------------------------
  

 Cite this work as:
 Gaussian 09, Revision C.01,
 M. J. Frisch, G. W. Trucks, H. B. Schlegel, G. E. Scuseria, 
 M. A. Robb, J. R. Cheeseman, G. Scalmani, V. Barone, B. Mennucci, 
 G. A. Petersson, H. Nakatsuji, M. Caricato, X. Li, H. P. Hratchian, 
 A. F. Izmaylov, J. Bloino, G. Zheng, J. L. Sonnenberg, M. Hada, 
 M. Ehara, K. Toyota, R. Fukuda, J. Hasegawa, M. Ishida, T. Nakajima, 
 Y. Honda, O. Kitao, H. Nakai, T. Vreven, J. A. Montgomery, Jr., 
 J. E. Peralta, F. Ogliaro, M. Bearpark, J. J. Heyd, E. Brothers, 
 K. N. Kudin, V. N. Staroverov, T. Keith, R. Kobayashi, J. Normand, 
 K. Raghavachari, A. Rendell, J. C. Burant, S. S. Iyengar, J. Tomasi, 
 M. Cossi, N. Rega, J. M. Millam, M. Klene, J. E. Knox, J. B. Cross, 
 V. Bakken, C. Adamo, J. Jaramillo, R. Gomperts, R. E. Stratmann, 
 O. Yazyev, A. J. Austin, R. Cammi, C. Pomelli, J. W. Ochterski, 
 R. L. Martin, K. Morokuma, V. G. Zakrzewski, G. A. Voth, 
 P. Salvador, J. J. Dannenberg, S. Dapprich, A. D. Daniels, 
 O. Farkas, J. B. Foresman, J. V. Ortiz, J. Cioslowski, 
 and D. J. Fox, Gaussian, Inc., Wallingford CT, 2010.
 
 ******************************************
 Gaussian 09:  EM64L-G09RevC.01 23-Sep-2011
                 2-Mar-2021 
 ******************************************
 %chk=hexa_2cis.chk
 -----------------------------------------
 # b3lyp/6-31g* geom=connectivity opt freq
 -----------------------------------------
 1/14=-1,18=20,19=15,26=3,38=1,57=2/1,3;
 2/9=110,12=2,17=6,18=5,40=1/2;
 3/5=1,6=6,7=1,11=2,16=1,25=1,30=1,71=1,74=-5/1,2,3;
 4//1;
 5/5=2,38=5/2;
 6/7=2,8=2,9=2,10=2,28=1/1;
 7//1,2,3,16;
 1/14=-1,18=20,19=15/3(2);
 2/9=110/2;
 99//99;
 2/9=110/2;
 3/5=1,6=6,7=1,11=2,16=1,25=1,30=1,71=1,74=-5/1,2,3;
 4/5=5,16=3/1;
 5/5=2,38=5/2;
 7//1,2,3,16;
 1/14=-1,18=20,19=15/3(-5);
 2/9=110/2;
 6/7=2,8=2,9=2,10=2,19=2,28=1/1;
 99/9=1/99;
 -------------------
 Title Card Required
 -------------------
 Charge =  0 Multiplicity = 1
 Symbolic Z-Matrix:
 C                    -0.48339  -2.57391   0. 
 H                    -0.44722  -3.64042   0. 
 H                    -1.42851  -2.0746    0. 
 C                     0.66373  -1.85335   0. 
 H                     1.60886  -2.35265   0. 
 C                     0.61168  -0.31837   0. 
 H                     1.52053   0.24607   0. 
 C                    -0.61168   0.31837   0. 
 H                    -1.52053  -0.24607   0. 
 C                    -0.66373   1.85335   0. 
 H                    -1.60886   2.35265   0. 
 C                     0.48339   2.57391   0. 
 H                     0.44722   3.64042   0. 
 H                     1.42851   2.0746    0. 
 

 GradGradGradGradGradGradGradGradGradGradGradGradGradGradGradGradGradGrad
 Berny optimization.
 Initialization pass.
                           ----------------------------
                           !    Initial Parameters    !
                           ! (Angstroms and Degrees)  !
 --------------------------                            --------------------------
 ! Name  Definition              Value          Derivative Info.                !
 --------------------------------------------------------------------------------
 ! R1    R(1,2)                  1.0671         estimate D2E/DX2                !
 ! R2    R(1,3)                  1.0689         estimate D2E/DX2                !
 ! R3    R(1,4)                  1.3547         estimate D2E/DX2                !
 ! R4    R(4,5)                  1.0689         estimate D2E/DX2                !
 ! R5    R(4,6)                  1.5359         estimate D2E/DX2                !
 ! R6    R(6,7)                  1.0699         estimate D2E/DX2                !
 ! R7    R(6,8)                  1.3791         estimate D2E/DX2                !
 ! R8    R(8,9)                  1.0699         estimate D2E/DX2                !
 ! R9    R(8,10)                 1.5359         estimate D2E/DX2                !
 ! R10   R(10,11)                1.0689         estimate D2E/DX2                !
 ! R11   R(10,12)                1.3547         estimate D2E/DX2                !
 ! R12   R(12,13)                1.0671         estimate D2E/DX2                !
 ! R13   R(12,14)                1.0689         estimate D2E/DX2                !
 ! A1    A(2,1,3)              119.7896         estimate D2E/DX2                !
 ! A2    A(2,1,4)              120.1924         estimate D2E/DX2                !
 ! A3    A(3,1,4)              120.0179         estimate D2E/DX2                !
 ! A4    A(1,4,5)              120.0179         estimate D2E/DX2                !
 ! A5    A(1,4,6)              120.1924         estimate D2E/DX2                !
 ! A6    A(5,4,6)              119.7896         estimate D2E/DX2                !
 ! A7    A(4,6,7)              119.9            estimate D2E/DX2                !
 ! A8    A(4,6,8)              119.4385         estimate D2E/DX2                !
 ! A9    A(7,6,8)              120.6614         estimate D2E/DX2                !
 ! A10   A(6,8,9)              120.6614         estimate D2E/DX2                !
 ! A11   A(6,8,10)             119.4385         estimate D2E/DX2                !
 ! A12   A(9,8,10)             119.9            estimate D2E/DX2                !
 ! A13   A(8,10,11)            119.7896         estimate D2E/DX2                !
 ! A14   A(8,10,12)            120.1924         estimate D2E/DX2                !
 ! A15   A(11,10,12)           120.0179         estimate D2E/DX2                !
 ! A16   A(10,12,13)           120.1924         estimate D2E/DX2                !
 ! A17   A(10,12,14)           120.0179         estimate D2E/DX2                !
 ! A18   A(13,12,14)           119.7896         estimate D2E/DX2                !
 ! D1    D(2,1,4,5)              0.0            estimate D2E/DX2                !
 ! D2    D(2,1,4,6)            180.0            estimate D2E/DX2                !
 ! D3    D(3,1,4,5)            180.0            estimate D2E/DX2                !
 ! D4    D(3,1,4,6)              0.0            estimate D2E/DX2                !
 ! D5    D(1,4,6,7)            180.0            estimate D2E/DX2                !
 ! D6    D(1,4,6,8)              0.0            estimate D2E/DX2                !
 ! D7    D(5,4,6,7)              0.0            estimate D2E/DX2                !
 ! D8    D(5,4,6,8)            180.0            estimate D2E/DX2                !
 ! D9    D(4,6,8,9)              0.0            estimate D2E/DX2                !
 ! D10   D(4,6,8,10)           180.0            estimate D2E/DX2                !
 ! D11   D(7,6,8,9)            180.0            estimate D2E/DX2                !
 ! D12   D(7,6,8,10)             0.0            estimate D2E/DX2                !
 ! D13   D(6,8,10,11)          180.0            estimate D2E/DX2                !
 ! D14   D(6,8,10,12)            0.0            estimate D2E/DX2                !
 ! D15   D(9,8,10,11)            0.0            estimate D2E/DX2                !
 ! D16   D(9,8,10,12)          180.0            estimate D2E/DX2                !
 ! D17   D(8,10,12,13)         180.0            estimate D2E/DX2                !
 ! D18   D(8,10,12,14)           0.0            estimate D2E/DX2                !
 ! D19   D(11,10,12,13)          0.0            estimate D2E/DX2                !
 ! D20   D(11,10,12,14)        180.0            estimate D2E/DX2                !
 --------------------------------------------------------------------------------
 Trust Radius=3.00D-01 FncErr=1.00D-07 GrdErr=1.00D-06
 Number of steps in this run=     61 maximum allowed number of steps=    100.
 GradGradGradGradGradGradGradGradGradGradGradGradGradGradGradGradGradGrad

                          Input orientation:                          
 ---------------------------------------------------------------------
 Center     Atomic      Atomic             Coordinates (Angstroms)
 Number     Number       Type             X           Y           Z
 ---------------------------------------------------------------------
      1          6           0       -0.483390   -2.573905    0.000000
      2          1           0       -0.447223   -3.640415    0.000000
      3          1           0       -1.428514   -2.074598    0.000000
      4          6           0        0.663734   -1.853348    0.000000
      5          1           0        1.608858   -2.352654    0.000000
      6          6           0        0.611680   -0.318370    0.000000
      7          1           0        1.520527    0.246067    0.000000
      8          6           0       -0.611680    0.318370    0.000000
      9          1           0       -1.520527   -0.246067    0.000000
     10          6           0       -0.663734    1.853348    0.000000
     11          1           0       -1.608858    2.352654    0.000000
     12          6           0        0.483390    2.573905    0.000000
     13          1           0        0.447223    3.640415    0.000000
     14          1           0        1.428514    2.074598    0.000000
 ---------------------------------------------------------------------
                    Distance matrix (angstroms):
                    1          2          3          4          5
     1  C    0.000000
     2  H    1.067123   0.000000
     3  H    1.068909   1.847895   0.000000
     4  C    1.354657   2.104242   2.103914   0.000000
     5  H    2.103914   2.426066   3.050073   1.068909   0.000000
     6  C    2.507312   3.486726   2.691975   1.535860   2.265541
     7  H    3.459469   4.356235   3.752643   2.267518   2.600222
     8  C    2.895119   3.962200   2.528540   2.518539   3.473495
     9  H    2.548427   3.559997   1.830844   2.711890   3.772368
    10  C    4.430924   5.498027   4.001706   3.937227   4.780704
    11  H    5.053481   6.104611   4.430924   4.780704   5.700318
    12  C    5.237806   6.283615   5.026327   4.430924   5.053481
    13  H    6.283615   7.335566   6.014962   5.498027   6.104611
    14  H    5.026327   6.014962   5.037702   4.001706   4.430924
                    6          7          8          9         10
     6  C    0.000000
     7  H    1.069856   0.000000
     8  C    1.379149   2.133433   0.000000
     9  H    2.133433   3.080617   1.069856   0.000000
    10  C    2.518539   2.711890   1.535860   2.267518   0.000000
    11  H    3.473495   3.772368   2.265541   2.600222   1.068909
    12  C    2.895119   2.548427   2.507312   3.459469   1.354657
    13  H    3.962200   3.559997   3.486726   4.356235   2.104242
    14  H    2.528540   1.830844   2.691975   3.752643   2.103914
                   11         12         13         14
    11  H    0.000000
    12  C    2.103914   0.000000
    13  H    2.426066   1.067123   0.000000
    14  H    3.050073   1.068909   1.847895   0.000000
 Stoichiometry    C6H8
 Framework group  C2H[SGH(C6H8)]
 Deg. of freedom    13
 Full point group                 C2H     NOp   4
 Largest Abelian subgroup         C2H     NOp   4
 Largest concise Abelian subgroup C2      NOp   2
                         Standard orientation:                         
 ---------------------------------------------------------------------
 Center     Atomic      Atomic             Coordinates (Angstroms)
 Number     Number       Type             X           Y           Z
 ---------------------------------------------------------------------
      1          6           0        0.689306    2.526561    0.000000
      2          1           0        1.187640    3.470179    0.000000
      3          1           0       -0.378984    2.490177    0.000000
      4          6           0        1.406534    1.377353    0.000000
      5          1           0        2.474824    1.413737    0.000000
      6          6           0        0.689306    0.019249    0.000000
      7          1           0        1.260369   -0.885449    0.000000
      8          6           0       -0.689306   -0.019249    0.000000
      9          1           0       -1.260369    0.885449    0.000000
     10          6           0       -1.406534   -1.377353    0.000000
     11          1           0       -2.474824   -1.413737    0.000000
     12          6           0       -0.689306   -2.526561    0.000000
     13          1           0       -1.187640   -3.470179    0.000000
     14          1           0        0.378984   -2.490177    0.000000
 ---------------------------------------------------------------------
 Rotational constants (GHZ):     12.7816649      1.7393775      1.5310292
 Standard basis: 6-31G(d) (6D, 7F)
 There are    41 symmetry adapted basis functions of AG  symmetry.
 There are    12 symmetry adapted basis functions of BG  symmetry.
 There are    12 symmetry adapted basis functions of AU  symmetry.
 There are    41 symmetry adapted basis functions of BU  symmetry.
 Integral buffers will be    131072 words long.
 Raffenetti 2 integral format.
 Two-electron integral symmetry is turned on.
   106 basis functions,   200 primitive gaussians,   106 cartesian basis functions
    22 alpha electrons       22 beta electrons
       nuclear repulsion energy       197.5727841699 Hartrees.
 NAtoms=   14 NActive=   14 NUniq=    7 SFac= 4.00D+00 NAtFMM=   60 NAOKFM=F Big=F
 One-electron integrals computed using PRISM.
 NBasis=   106 RedAO= T  NBF=    41    12    12    41
 NBsUse=   106 1.00D-06 NBFU=    41    12    12    41
 Harris functional with IExCor=  402 diagonalized for initial guess.
 ExpMin= 1.61D-01 ExpMax= 3.05D+03 ExpMxC= 4.57D+02 IAcc=1 IRadAn=         1 AccDes= 0.00D+00
 HarFok:  IExCor=  402 AccDes= 0.00D+00 IRadAn=         1 IDoV= 1
 ScaDFX=  1.000000  1.000000  1.000000  1.000000
 FoFCou: FMM=F IPFlag=           0 FMFlag=      100000 FMFlg1=           0
         NFxFlg=           0 DoJE=T BraDBF=F KetDBF=T FulRan=T
         Omega=  0.000000  0.000000  1.000000  0.000000  0.000000 ICntrl=     500 IOpCl=  0
         NMat0=    1 NMatS0=    1 NMatT0=    0 NMatD0=    1 NMtDS0=    0 NMtDT0=    0
         I1Cent=           4 NGrid=           0.
 Petite list used in FoFCou.
 Initial guess orbital symmetries:
       Occupied  (BU) (AG) (BU) (AG) (AG) (BU) (AG) (BU) (AG) (BU)
                 (AG) (BU) (BU) (AG) (AG) (BU) (BU) (AG) (AG) (AU)
                 (BG) (AU)
       Virtual   (BG) (AU) (BG) (BU) (AG) (BU) (AG) (BU) (AG) (AG)
                 (BU) (BU) (BU) (AG) (AG) (BU) (AG) (AU) (BU) (BU)
                 (BG) (AG) (AG) (BU) (AU) (BG) (AG) (BU) (AU) (BG)
                 (AG) (BU) (AG) (BU) (AG) (BU) (AG) (BU) (AG) (BU)
                 (BU) (AG) (BU) (AG) (BU) (AG) (AU) (BG) (BG) (AU)
                 (AG) (BU) (AU) (BG) (AU) (AG) (BU) (AG) (AG) (BU)
                 (BU) (BG) (AG) (BU) (AU) (AG) (BU) (BG) (AU) (AG)
                 (BG) (BU) (AG) (BU) (AG) (BU) (BU) (AG) (AG) (BU)
                 (AG) (BU) (AG) (BU)
 The electronic state of the initial guess is 1-AG.
 Requested convergence on RMS density matrix=1.00D-08 within 128 cycles.
 Requested convergence on MAX density matrix=1.00D-06.
 Requested convergence on             energy=1.00D-06.
 No special actions if energy rises.
 Keep R1 ints in memory in canonical form, NReq=17179936.
 Integral accuracy reduced to 1.0D-05 until final iterations.
 Initial convergence to 1.0D-05 achieved.  Increase integral accuracy.
 SCF Done:  E(RB3LYP) =  -233.366976387     A.U. after   12 cycles
             Convg  =    0.3157D-08             -V/T =  2.0107

 **********************************************************************

            Population analysis using the SCF density.

 **********************************************************************

 Orbital symmetries:
       Occupied  (AG) (BU) (AG) (BU) (BU) (AG) (AG) (BU) (AG) (BU)
                 (AG) (BU) (BU) (AG) (AG) (BU) (BU) (AG) (AG) (AU)
                 (BG) (AU)
       Virtual   (BG) (AU) (BU) (BG) (AG) (BU) (AG) (BU) (AG) (BU)
                 (AG) (BU) (BU) (AG) (AG) (BU) (AG) (AU) (BG) (BU)
                 (BU) (AG) (AG) (AU) (BG) (BU) (AU) (BU) (AG) (BG)
                 (AG) (BU) (BU) (AG) (AG) (BU) (AG) (BU) (BU) (AG)
                 (BU) (AG) (BU) (AG) (BU) (AG) (AU) (BG) (BG) (AG)
                 (AU) (BU) (AU) (BG) (AU) (AG) (BU) (AG) (AG) (BU)
                 (BU) (BG) (AG) (BU) (AU) (AG) (BU) (BG) (AU) (AG)
                 (BG) (AG) (BU) (BU) (AG) (BU) (BU) (AG) (AG) (BU)
                 (AG) (BU) (AG) (BU)
 The electronic state is 1-AG.
 Alpha  occ. eigenvalues --  -10.19629 -10.19620 -10.19608 -10.19554 -10.17784
 Alpha  occ. eigenvalues --  -10.17784  -0.80618  -0.76446  -0.70096  -0.62700
 Alpha  occ. eigenvalues --   -0.57160  -0.52166  -0.49483  -0.45089  -0.43650
 Alpha  occ. eigenvalues --   -0.40719  -0.36842  -0.36167  -0.34389  -0.32454
 Alpha  occ. eigenvalues --   -0.27599  -0.20382
 Alpha virt. eigenvalues --   -0.04892   0.03277   0.09960   0.10453   0.11879
 Alpha virt. eigenvalues --    0.13350   0.14961   0.18392   0.20053   0.22867
 Alpha virt. eigenvalues --    0.24458   0.27225   0.30657   0.33620   0.39026
 Alpha virt. eigenvalues --    0.46448   0.46855   0.52459   0.55569   0.55644
 Alpha virt. eigenvalues --    0.57206   0.57801   0.60870   0.63092   0.63419
 Alpha virt. eigenvalues --    0.63561   0.67035   0.67667   0.67733   0.70315
 Alpha virt. eigenvalues --    0.83057   0.84672   0.88681   0.88814   0.90525
 Alpha virt. eigenvalues --    0.93059   0.95872   0.96012   1.00766   1.00769
 Alpha virt. eigenvalues --    1.05653   1.07592   1.12685   1.13713   1.22831
 Alpha virt. eigenvalues --    1.23973   1.33553   1.37330   1.47000   1.49025
 Alpha virt. eigenvalues --    1.49284   1.49536   1.54641   1.68006   1.71966
 Alpha virt. eigenvalues --    1.74891   1.76306   1.91616   1.94872   1.97006
 Alpha virt. eigenvalues --    2.03566   2.06894   2.14722   2.19478   2.20435
 Alpha virt. eigenvalues --    2.21913   2.22468   2.25106   2.40013   2.42519
 Alpha virt. eigenvalues --    2.48837   2.54874   2.56749   2.61461   2.74060
 Alpha virt. eigenvalues --    2.80799   2.95445   3.04303   4.04903   4.09107
 Alpha virt. eigenvalues --    4.16463   4.19076   4.35969   4.50373
          Condensed to atoms (all electrons):
              1          2          3          4          5          6
     1  C    5.048580   0.367971   0.363712   0.655662  -0.054452  -0.039037
     2  H    0.367971   0.556971  -0.040662  -0.025691  -0.006659   0.004525
     3  H    0.363712  -0.040662   0.566662  -0.030087   0.006263  -0.018890
     4  C    0.655662  -0.025691  -0.030087   4.793784   0.365538   0.409903
     5  H   -0.054452  -0.006659   0.006263   0.365538   0.595859  -0.040566
     6  C   -0.039037   0.004525  -0.018890   0.409903  -0.040566   4.920731
     7  H    0.004789  -0.000124  -0.000026  -0.039799  -0.003486   0.356095
     8  C   -0.022859   0.000290   0.005501  -0.026757   0.004408   0.627089
     9  H    0.002518   0.000029   0.005003  -0.012486   0.000006  -0.050147
    10  C    0.000505  -0.000006   0.000070   0.003509  -0.000102  -0.026757
    11  H    0.000003   0.000000   0.000019  -0.000102   0.000001   0.004408
    12  C   -0.000010   0.000000   0.000002   0.000505   0.000003  -0.022859
    13  H    0.000000   0.000000   0.000000  -0.000006   0.000000   0.000290
    14  H    0.000002   0.000000   0.000003   0.000070   0.000019   0.005501
              7          8          9         10         11         12
     1  C    0.004789  -0.022859   0.002518   0.000505   0.000003  -0.000010
     2  H   -0.000124   0.000290   0.000029  -0.000006   0.000000   0.000000
     3  H   -0.000026   0.005501   0.005003   0.000070   0.000019   0.000002
     4  C   -0.039799  -0.026757  -0.012486   0.003509  -0.000102   0.000505
     5  H   -0.003486   0.004408   0.000006  -0.000102   0.000001   0.000003
     6  C    0.356095   0.627089  -0.050147  -0.026757   0.004408  -0.022859
     7  H    0.598895  -0.050147   0.005971  -0.012486   0.000006   0.002518
     8  C   -0.050147   4.920731   0.356095   0.409903  -0.040566  -0.039037
     9  H    0.005971   0.356095   0.598895  -0.039799  -0.003486   0.004789
    10  C   -0.012486   0.409903  -0.039799   4.793784   0.365538   0.655662
    11  H    0.000006  -0.040566  -0.003486   0.365538   0.595859  -0.054452
    12  C    0.002518  -0.039037   0.004789   0.655662  -0.054452   5.048580
    13  H    0.000029   0.004525  -0.000124  -0.025691  -0.006659   0.367971
    14  H    0.005003  -0.018890  -0.000026  -0.030087   0.006263   0.363712
             13         14
     1  C    0.000000   0.000002
     2  H    0.000000   0.000000
     3  H    0.000000   0.000003
     4  C   -0.000006   0.000070
     5  H    0.000000   0.000019
     6  C    0.000290   0.005501
     7  H    0.000029   0.005003
     8  C    0.004525  -0.018890
     9  H   -0.000124  -0.000026
    10  C   -0.025691  -0.030087
    11  H   -0.006659   0.006263
    12  C    0.367971   0.363712
    13  H    0.556971  -0.040662
    14  H   -0.040662   0.566662
 Mulliken atomic charges:
              1
     1  C   -0.327384
     2  H    0.143357
     3  H    0.142430
     4  C   -0.094045
     5  H    0.133167
     6  C   -0.130285
     7  H    0.132760
     8  C   -0.130285
     9  H    0.132760
    10  C   -0.094045
    11  H    0.133167
    12  C   -0.327384
    13  H    0.143357
    14  H    0.142430
 Sum of Mulliken atomic charges =   0.00000
 Mulliken charges with hydrogens summed into heavy atoms:
              1
     1  C   -0.041597
     4  C    0.039123
     6  C    0.002475
     8  C    0.002475
    10  C    0.039123
    12  C   -0.041597
 Sum of Mulliken charges with hydrogens summed into heavy atoms =   0.00000
 Electronic spatial extent (au):  <R**2>=            776.4845
 Charge=              0.0000 electrons
 Dipole moment (field-independent basis, Debye):
    X=              0.0000    Y=              0.0000    Z=              0.0000  Tot=              0.0000
 Quadrupole moment (field-independent basis, Debye-Ang):
   XX=            -32.4154   YY=            -33.9537   ZZ=            -40.9160
   XY=             -0.2253   XZ=              0.0000   YZ=              0.0000
 Traceless Quadrupole moment (field-independent basis, Debye-Ang):
   XX=              3.3463   YY=              1.8080   ZZ=             -5.1543
   XY=             -0.2253   XZ=              0.0000   YZ=              0.0000
 Octapole moment (field-independent basis, Debye-Ang**2):
  XXX=              0.0000  YYY=              0.0000  ZZZ=              0.0000  XYY=              0.0000
  XXY=              0.0000  XXZ=              0.0000  XZZ=              0.0000  YZZ=              0.0000
  YYZ=              0.0000  XYZ=              0.0000
 Hexadecapole moment (field-independent basis, Debye-Ang**3):
 XXXX=           -268.3905 YYYY=           -681.9084 ZZZZ=            -42.5942 XXXY=           -124.7305
 XXXZ=              0.0000 YYYX=           -119.8290 YYYZ=              0.0000 ZZZX=              0.0000
 ZZZY=              0.0000 XXYY=           -156.6285 XXZZ=            -60.7954 YYZZ=           -144.0213
 XXYZ=              0.0000 YYXZ=              0.0000 ZZXY=            -52.2082
 N-N= 1.975727841699D+02 E-N=-9.345614613024D+02  KE= 2.309057471277D+02
 Symmetry AG   KE= 1.139334842282D+02
 Symmetry BG   KE= 2.071299894476D+00
 Symmetry AU   KE= 4.275496922126D+00
 Symmetry BU   KE= 1.106254660828D+02
 Calling FoFJK, ICntrl=      2127 FMM=F ISym2X=1 I1Cent= 0 IOpClX= 0 NMat=1 NMatS=1 NMatT=0.
 ***** Axes restored to original set *****
 -------------------------------------------------------------------
 Center     Atomic                   Forces (Hartrees/Bohr)
 Number     Number              X              Y              Z
 -------------------------------------------------------------------
      1        6           0.032316169    0.009262247    0.000000000
      2        1          -0.003163012   -0.013393939    0.000000000
      3        1          -0.011569210   -0.003029891    0.000000000
      4        6          -0.032087211    0.034777117    0.000000000
      5        1           0.012900451   -0.002988527    0.000000000
      6        6          -0.047813063   -0.040149444    0.000000000
      7        1           0.009547578   -0.000353601    0.000000000
      8        6           0.047813063    0.040149444    0.000000000
      9        1          -0.009547578    0.000353601    0.000000000
     10        6           0.032087211   -0.034777117    0.000000000
     11        1          -0.012900451    0.002988527    0.000000000
     12        6          -0.032316169   -0.009262247    0.000000000
     13        1           0.003163012    0.013393939    0.000000000
     14        1           0.011569210    0.003029891    0.000000000
 -------------------------------------------------------------------
 Cartesian Forces:  Max     0.047813063 RMS     0.019354206

 GradGradGradGradGradGradGradGradGradGradGradGradGradGradGradGradGradGrad
 Berny optimization.
 Internal  Forces:  Max     0.034618531 RMS     0.014193040
 Search for a local minimum.
 Step number   1 out of a maximum of   61
 All quantities printed in internal units (Hartrees-Bohrs-Radians)
 Mixed Optimization -- RFO/linear search
 Second derivative matrix not updated -- first step.
 ITU=  0
     Eigenvalues ---    0.00292   0.00292   0.01336   0.01336   0.01493
     Eigenvalues ---    0.01493   0.02365   0.02689   0.02689   0.02689
     Eigenvalues ---    0.02689   0.16000   0.16000   0.16000   0.16000
     Eigenvalues ---    0.16000   0.16000   0.16000   0.16000   0.22000
     Eigenvalues ---    0.22000   0.22000   0.22000   0.28889   0.28889
     Eigenvalues ---    0.37248   0.37248   0.37368   0.37368   0.37368
     Eigenvalues ---    0.37368   0.37596   0.37596   0.49258   0.54042
     Eigenvalues ---    0.54042
 RFO step:  Lambda=-3.60963871D-02 EMin= 2.91594223D-03
 Linear search not attempted -- first point.
 Maximum step size (   0.300) exceeded in Quadratic search.
    -- Step size scaled by   0.822
 Iteration  1 RMS(Cart)=  0.14655127 RMS(Int)=  0.00518809
 Iteration  2 RMS(Cart)=  0.00700523 RMS(Int)=  0.00000754
 Iteration  3 RMS(Cart)=  0.00001833 RMS(Int)=  0.00000000
 Iteration  4 RMS(Cart)=  0.00000000 RMS(Int)=  0.00000000
 ClnCor:  largest displacement from symmetrization is 8.28D-12 for atom    12.
 Variable       Old X    -DE/DX   Delta X   Delta X   Delta X     New X
                                 (Linear)    (Quad)   (Total)
    R1        2.01657   0.01328   0.00000   0.02650   0.02650   2.04307
    R2        2.01995   0.00881   0.00000   0.01769   0.01769   2.03763
    R3        2.55993  -0.01108   0.00000  -0.01581  -0.01581   2.54413
    R4        2.01995   0.01280   0.00000   0.02569   0.02569   2.04564
    R5        2.90235  -0.02467   0.00000  -0.06241  -0.06241   2.83994
    R6        2.02173   0.00792   0.00000   0.01595   0.01595   2.03768
    R7        2.60621  -0.02803   0.00000  -0.04360  -0.04360   2.56261
    R8        2.02173   0.00792   0.00000   0.01595   0.01595   2.03768
    R9        2.90235  -0.02467   0.00000  -0.06241  -0.06241   2.83994
   R10        2.01995   0.01280   0.00000   0.02569   0.02569   2.04564
   R11        2.55993  -0.01108   0.00000  -0.01581  -0.01581   2.54413
   R12        2.01657   0.01328   0.00000   0.02650   0.02650   2.04307
   R13        2.01995   0.00881   0.00000   0.01769   0.01769   2.03763
    A1        2.09072  -0.00787   0.00000  -0.03301  -0.03301   2.05771
    A2        2.09775  -0.00058   0.00000  -0.00245  -0.00245   2.09531
    A3        2.09471   0.00846   0.00000   0.03546   0.03546   2.13016
    A4        2.09471  -0.01389   0.00000  -0.04124  -0.04124   2.05346
    A5        2.09775   0.03462   0.00000   0.11115   0.11115   2.20890
    A6        2.09072  -0.02073   0.00000  -0.06991  -0.06991   2.02082
    A7        2.09265  -0.02131   0.00000  -0.07371  -0.07371   2.01894
    A8        2.08460   0.03182   0.00000   0.10217   0.10217   2.18676
    A9        2.10594  -0.01051   0.00000  -0.02846  -0.02846   2.07748
   A10        2.10594  -0.01051   0.00000  -0.02846  -0.02846   2.07748
   A11        2.08460   0.03182   0.00000   0.10217   0.10217   2.18676
   A12        2.09265  -0.02131   0.00000  -0.07371  -0.07371   2.01894
   A13        2.09072  -0.02073   0.00000  -0.06991  -0.06991   2.02082
   A14        2.09775   0.03462   0.00000   0.11115   0.11115   2.20890
   A15        2.09471  -0.01389   0.00000  -0.04124  -0.04124   2.05346
   A16        2.09775  -0.00058   0.00000  -0.00245  -0.00245   2.09531
   A17        2.09471   0.00846   0.00000   0.03546   0.03546   2.13016
   A18        2.09072  -0.00787   0.00000  -0.03301  -0.03301   2.05771
    D1        0.00000   0.00000   0.00000   0.00000   0.00000   0.00000
    D2        3.14159   0.00000   0.00000   0.00000   0.00000   3.14159
    D3        3.14159   0.00000   0.00000   0.00000   0.00000   3.14159
    D4        0.00000   0.00000   0.00000   0.00000   0.00000   0.00000
    D5        3.14159   0.00000   0.00000   0.00000   0.00000   3.14159
    D6        0.00000   0.00000   0.00000   0.00000   0.00000   0.00000
    D7        0.00000   0.00000   0.00000   0.00000   0.00000   0.00000
    D8        3.14159   0.00000   0.00000   0.00000   0.00000   3.14159
    D9        0.00000   0.00000   0.00000   0.00000   0.00000   0.00000
   D10        3.14159   0.00000   0.00000   0.00000   0.00000   3.14159
   D11        3.14159   0.00000   0.00000   0.00000   0.00000   3.14159
   D12        0.00000   0.00000   0.00000   0.00000   0.00000   0.00000
   D13        3.14159   0.00000   0.00000   0.00000   0.00000   3.14159
   D14        0.00000   0.00000   0.00000   0.00000   0.00000   0.00000
   D15        0.00000   0.00000   0.00000   0.00000   0.00000   0.00000
   D16        3.14159   0.00000   0.00000   0.00000   0.00000   3.14159
   D17        3.14159   0.00000   0.00000   0.00000   0.00000   3.14159
   D18        0.00000   0.00000   0.00000   0.00000   0.00000   0.00000
   D19        0.00000   0.00000   0.00000   0.00000   0.00000   0.00000
   D20        3.14159   0.00000   0.00000   0.00000   0.00000   3.14159
         Item               Value     Threshold  Converged?
 Maximum Force            0.034619     0.000450     NO 
 RMS     Force            0.014193     0.000300     NO 
 Maximum Displacement     0.465582     0.001800     NO 
 RMS     Displacement     0.145586     0.001200     NO 
 Predicted change in Energy=-1.910231D-02
 GradGradGradGradGradGradGradGradGradGradGradGradGradGradGradGradGradGrad

                          Input orientation:                          
 ---------------------------------------------------------------------
 Center     Atomic      Atomic             Coordinates (Angstroms)
 Number     Number       Type             X           Y           Z
 ---------------------------------------------------------------------
      1          6           0       -0.496472   -2.702496    0.000000
      2          1           0       -0.361405   -3.775171    0.000000
      3          1           0       -1.504987   -2.320974    0.000000
      4          6           0        0.575479   -1.887986    0.000000
      5          1           0        1.555631   -2.347460    0.000000
      6          6           0        0.557956   -0.385255    0.000000
      7          1           0        1.524256    0.093267    0.000000
      8          6           0       -0.557956    0.385255    0.000000
      9          1           0       -1.524256   -0.093267    0.000000
     10          6           0       -0.575479    1.887986    0.000000
     11          1           0       -1.555631    2.347460    0.000000
     12          6           0        0.496472    2.702496    0.000000
     13          1           0        0.361405    3.775171    0.000000
     14          1           0        1.504987    2.320974    0.000000
 ---------------------------------------------------------------------
                    Distance matrix (angstroms):
                    1          2          3          4          5
     1  C    0.000000
     2  H    1.081146   0.000000
     3  H    1.078268   1.849992   0.000000
     4  C    1.346294   2.106946   2.125046   0.000000
     5  H    2.082589   2.390269   3.060733   1.082504   0.000000
     6  C    2.545864   3.512372   2.828912   1.502833   2.201274
     7  H    3.449585   4.303549   3.873613   2.196712   2.440929
     8  C    3.088363   4.165066   2.867149   2.540138   3.454704
     9  H    2.804356   3.861171   2.227790   2.762228   3.816686
    10  C    4.591162   5.667202   4.310374   3.947489   4.741375
    11  H    5.159833   6.238012   4.668709   4.741375   5.632249
    12  C    5.495441   6.534227   5.407503   4.591162   5.159833
    13  H    6.534227   7.584862   6.375453   5.667202   6.238012
    14  H    5.407503   6.375453   5.532416   4.310374   4.668709
                    6          7          8          9         10
     6  C    0.000000
     7  H    1.078295   0.000000
     8  C    1.356077   2.102585   0.000000
     9  H    2.102585   3.054214   1.078295   0.000000
    10  C    2.540138   2.762228   1.502833   2.196712   0.000000
    11  H    3.454704   3.816686   2.201274   2.440929   1.082504
    12  C    3.088363   2.804356   2.545864   3.449585   1.346294
    13  H    4.165066   3.861171   3.512372   4.303549   2.106946
    14  H    2.867149   2.227790   2.828912   3.873613   2.125046
                   11         12         13         14
    11  H    0.000000
    12  C    2.082589   0.000000
    13  H    2.390269   1.081146   0.000000
    14  H    3.060733   1.078268   1.849992   0.000000
 Stoichiometry    C6H8
 Framework group  C2H[SGH(C6H8)]
 Deg. of freedom    13
 Full point group                 C2H     NOp   4
 Largest Abelian subgroup         C2H     NOp   4
 Largest concise Abelian subgroup C2      NOp   2
                         Standard orientation:                         
 ---------------------------------------------------------------------
 Center     Atomic      Atomic             Coordinates (Angstroms)
 Number     Number       Type             X           Y           Z
 ---------------------------------------------------------------------
      1          6           0        0.667412    2.665432    0.000000
      2          1           0        1.234623    3.585838    0.000000
      3          1           0       -0.408552    2.735871    0.000000
      4          6           0        1.305753    1.480093    0.000000
      5          1           0        2.388187    1.492354    0.000000
      6          6           0        0.667412    0.119568    0.000000
      7          1           0        1.348746   -0.716197    0.000000
      8          6           0       -0.667412   -0.119568    0.000000
      9          1           0       -1.348746    0.716197    0.000000
     10          6           0       -1.305753   -1.480093    0.000000
     11          1           0       -2.388187   -1.492354    0.000000
     12          6           0       -0.667412   -2.665432    0.000000
     13          1           0       -1.234623   -3.585838    0.000000
     14          1           0        0.408552   -2.735871    0.000000
 ---------------------------------------------------------------------
 Rotational constants (GHZ):     14.1656040      1.6036041      1.4405302
 Standard basis: 6-31G(d) (6D, 7F)
 There are    41 symmetry adapted basis functions of AG  symmetry.
 There are    12 symmetry adapted basis functions of BG  symmetry.
 There are    12 symmetry adapted basis functions of AU  symmetry.
 There are    41 symmetry adapted basis functions of BU  symmetry.
 Integral buffers will be    131072 words long.
 Raffenetti 2 integral format.
 Two-electron integral symmetry is turned on.
   106 basis functions,   200 primitive gaussians,   106 cartesian basis functions
    22 alpha electrons       22 beta electrons
       nuclear repulsion energy       195.6384444490 Hartrees.
 NAtoms=   14 NActive=   14 NUniq=    7 SFac= 4.00D+00 NAtFMM=   60 NAOKFM=F Big=F
 One-electron integrals computed using PRISM.
 NBasis=   106 RedAO= T  NBF=    41    12    12    41
 NBsUse=   106 1.00D-06 NBFU=    41    12    12    41
 Initial guess read from the read-write file.
 B after Tr=     0.000000    0.000000    0.000000
         Rot=    1.000000    0.000000    0.000000    0.000000 Ang=   0.00 deg.
 Initial guess orbital symmetries:
       Occupied  (AG) (BU) (AG) (BU) (BU) (AG) (AG) (BU) (AG) (BU)
                 (AG) (BU) (BU) (AG) (AG) (BU) (BU) (AG) (AG) (AU)
                 (BG) (AU)
       Virtual   (BG) (AU) (BU) (BG) (AG) (BU) (AG) (BU) (AG) (BU)
                 (AG) (BU) (BU) (AG) (AG) (BU) (AG) (AU) (BG) (BU)
                 (BU) (AG) (AG) (AU) (BG) (BU) (AU) (BU) (AG) (BG)
                 (AG) (BU) (BU) (AG) (AG) (BU) (AG) (BU) (BU) (AG)
                 (BU) (AG) (BU) (AG) (BU) (AG) (AU) (BG) (BG) (AG)
                 (AU) (BU) (AU) (BG) (AU) (AG) (BU) (AG) (AG) (BU)
                 (BU) (BG) (AG) (BU) (AU) (AG) (BU) (BG) (AU) (AG)
                 (BG) (AG) (BU) (BU) (AG) (BU) (BU) (AG) (AG) (BU)
                 (AG) (BU) (AG) (BU)
 Harris functional with IExCor=  402 diagonalized for initial guess.
 ExpMin= 1.61D-01 ExpMax= 3.05D+03 ExpMxC= 4.57D+02 IAcc=1 IRadAn=         1 AccDes= 0.00D+00
 HarFok:  IExCor=  402 AccDes= 0.00D+00 IRadAn=         1 IDoV= 1
 ScaDFX=  1.000000  1.000000  1.000000  1.000000
 FoFCou: FMM=F IPFlag=           0 FMFlag=      100000 FMFlg1=           0
         NFxFlg=           0 DoJE=T BraDBF=F KetDBF=T FulRan=T
         Omega=  0.000000  0.000000  1.000000  0.000000  0.000000 ICntrl=     500 IOpCl=  0
         NMat0=    1 NMatS0=    1 NMatT0=    0 NMatD0=    1 NMtDS0=    0 NMtDT0=    0
         I1Cent=           4 NGrid=           0.
 Petite list used in FoFCou.
 Requested convergence on RMS density matrix=1.00D-08 within 128 cycles.
 Requested convergence on MAX density matrix=1.00D-06.
 Requested convergence on             energy=1.00D-06.
 No special actions if energy rises.
 Keep R1 ints in memory in canonical form, NReq=17179936.
 Integral accuracy reduced to 1.0D-05 until final iterations.
 Initial convergence to 1.0D-05 achieved.  Increase integral accuracy.
 SCF Done:  E(RB3LYP) =  -233.383988105     A.U. after   12 cycles
             Convg  =    0.6465D-08             -V/T =  2.0106
 Calling FoFJK, ICntrl=      2127 FMM=F ISym2X=1 I1Cent= 0 IOpClX= 0 NMat=1 NMatS=1 NMatT=0.
 ***** Axes restored to original set *****
 -------------------------------------------------------------------
 Center     Atomic                   Forces (Hartrees/Bohr)
 Number     Number              X              Y              Z
 -------------------------------------------------------------------
      1        6           0.012023605    0.005650847    0.000000000
      2        1          -0.001735531   -0.003277502    0.000000000
      3        1          -0.006001138    0.000007443    0.000000000
      4        6          -0.009640416    0.019058196    0.000000000
      5        1           0.004857578    0.000190573    0.000000000
      6        6          -0.014696315   -0.020761402    0.000000000
      7        1           0.006376403    0.001956571    0.000000000
      8        6           0.014696315    0.020761402    0.000000000
      9        1          -0.006376403   -0.001956571    0.000000000
     10        6           0.009640416   -0.019058196    0.000000000
     11        1          -0.004857578   -0.000190573    0.000000000
     12        6          -0.012023605   -0.005650847    0.000000000
     13        1           0.001735531    0.003277502    0.000000000
     14        1           0.006001138   -0.000007443    0.000000000
 -------------------------------------------------------------------
 Cartesian Forces:  Max     0.020761402 RMS     0.008157836

 GradGradGradGradGradGradGradGradGradGradGradGradGradGradGradGradGradGrad
 Berny optimization.
 Using GEDIIS/GDIIS optimizer.
 Internal  Forces:  Max     0.021633774 RMS     0.005176896
 Search for a local minimum.
 Step number   2 out of a maximum of   61
 All quantities printed in internal units (Hartrees-Bohrs-Radians)
 Mixed Optimization -- RFO/linear search
 Update second derivatives using D2CorX and points    1    2
 DE= -1.70D-02 DEPred=-1.91D-02 R= 8.91D-01
 SS=  1.41D+00  RLast= 3.00D-01 DXNew= 5.0454D-01 9.0000D-01
 Trust test= 8.91D-01 RLast= 3.00D-01 DXMaxT set to 5.05D-01
 ITU=  1  0
 Use linear search instead of GDIIS.
     Eigenvalues ---    0.00292   0.00292   0.01359   0.01359   0.01510
     Eigenvalues ---    0.01510   0.02365   0.02689   0.02689   0.02689
     Eigenvalues ---    0.02689   0.15561   0.16000   0.16000   0.16000
     Eigenvalues ---    0.16000   0.16000   0.16000   0.16114   0.21558
     Eigenvalues ---    0.22000   0.22000   0.22045   0.28889   0.33183
     Eigenvalues ---    0.36522   0.37248   0.37330   0.37368   0.37368
     Eigenvalues ---    0.37440   0.37596   0.38628   0.48953   0.53796
     Eigenvalues ---    0.54042
 RFO step:  Lambda=-5.06005654D-03 EMin= 2.91594223D-03
 Quartic linear search produced a step of  0.41303.
 Iteration  1 RMS(Cart)=  0.04321503 RMS(Int)=  0.00077317
 Iteration  2 RMS(Cart)=  0.00106435 RMS(Int)=  0.00000029
 Iteration  3 RMS(Cart)=  0.00000035 RMS(Int)=  0.00000000
 ClnCor:  largest displacement from symmetrization is 1.12D-11 for atom    14.
 Variable       Old X    -DE/DX   Delta X   Delta X   Delta X     New X
                                 (Linear)    (Quad)   (Total)
    R1        2.04307   0.00304   0.01094   0.00365   0.01460   2.05766
    R2        2.03763   0.00561   0.00730   0.01586   0.02316   2.06079
    R3        2.54413  -0.00486  -0.00653  -0.00778  -0.01431   2.52982
    R4        2.04564   0.00432   0.01061   0.00874   0.01935   2.06498
    R5        2.83994  -0.02163  -0.02578  -0.08692  -0.11270   2.72724
    R6        2.03768   0.00658   0.00659   0.02004   0.02663   2.06431
    R7        2.56261  -0.00886  -0.01801  -0.01209  -0.03010   2.53251
    R8        2.03768   0.00658   0.00659   0.02004   0.02663   2.06431
    R9        2.83994  -0.02163  -0.02578  -0.08692  -0.11270   2.72724
   R10        2.04564   0.00432   0.01061   0.00874   0.01935   2.06498
   R11        2.54413  -0.00486  -0.00653  -0.00778  -0.01431   2.52982
   R12        2.04307   0.00304   0.01094   0.00365   0.01460   2.05766
   R13        2.03763   0.00561   0.00730   0.01586   0.02316   2.06079
    A1        2.05771  -0.00289  -0.01363  -0.01749  -0.03113   2.02659
    A2        2.09531   0.00146  -0.00101   0.01305   0.01204   2.10734
    A3        2.13016   0.00142   0.01464   0.00445   0.01909   2.14925
    A4        2.05346   0.00094  -0.01703   0.02190   0.00487   2.05833
    A5        2.20890   0.00268   0.04591  -0.01097   0.03494   2.24384
    A6        2.02082  -0.00363  -0.02887  -0.01093  -0.03980   1.98101
    A7        2.01894  -0.00261  -0.03044  -0.00114  -0.03158   1.98737
    A8        2.18676   0.00302   0.04220  -0.00661   0.03559   2.22235
    A9        2.07748  -0.00041  -0.01175   0.00774  -0.00401   2.07347
   A10        2.07748  -0.00041  -0.01175   0.00774  -0.00401   2.07347
   A11        2.18676   0.00302   0.04220  -0.00661   0.03559   2.22235
   A12        2.01894  -0.00261  -0.03044  -0.00114  -0.03158   1.98737
   A13        2.02082  -0.00363  -0.02887  -0.01093  -0.03980   1.98101
   A14        2.20890   0.00268   0.04591  -0.01097   0.03494   2.24384
   A15        2.05346   0.00094  -0.01703   0.02190   0.00487   2.05833
   A16        2.09531   0.00146  -0.00101   0.01305   0.01204   2.10734
   A17        2.13016   0.00142   0.01464   0.00445   0.01909   2.14925
   A18        2.05771  -0.00289  -0.01363  -0.01749  -0.03113   2.02659
    D1        0.00000   0.00000   0.00000   0.00000   0.00000   0.00000
    D2        3.14159   0.00000   0.00000   0.00000   0.00000   3.14159
    D3        3.14159   0.00000   0.00000   0.00000   0.00000   3.14159
    D4        0.00000   0.00000   0.00000   0.00000   0.00000   0.00000
    D5        3.14159   0.00000   0.00000   0.00000   0.00000   3.14159
    D6        0.00000   0.00000   0.00000   0.00000   0.00000   0.00000
    D7        0.00000   0.00000   0.00000   0.00000   0.00000   0.00000
    D8        3.14159   0.00000   0.00000   0.00000   0.00000   3.14159
    D9        0.00000   0.00000   0.00000   0.00000   0.00000   0.00000
   D10        3.14159   0.00000   0.00000   0.00000   0.00000   3.14159
   D11        3.14159   0.00000   0.00000   0.00000   0.00000   3.14159
   D12        0.00000   0.00000   0.00000   0.00000   0.00000   0.00000
   D13        3.14159   0.00000   0.00000   0.00000   0.00000   3.14159
   D14        0.00000   0.00000   0.00000   0.00000   0.00000   0.00000
   D15        0.00000   0.00000   0.00000   0.00000   0.00000   0.00000
   D16        3.14159   0.00000   0.00000   0.00000   0.00000   3.14159
   D17        3.14159   0.00000   0.00000   0.00000   0.00000   3.14159
   D18        0.00000   0.00000   0.00000   0.00000   0.00000   0.00000
   D19        0.00000   0.00000   0.00000   0.00000   0.00000   0.00000
   D20        3.14159   0.00000   0.00000   0.00000   0.00000   3.14159
         Item               Value     Threshold  Converged?
 Maximum Force            0.021634     0.000450     NO 
 RMS     Force            0.005177     0.000300     NO 
 Maximum Displacement     0.135277     0.001800     NO 
 RMS     Displacement     0.043652     0.001200     NO 
 Predicted change in Energy=-2.839107D-03
 GradGradGradGradGradGradGradGradGradGradGradGradGradGradGradGradGradGrad

                          Input orientation:                          
 ---------------------------------------------------------------------
 Center     Atomic      Atomic             Coordinates (Angstroms)
 Number     Number       Type             X           Y           Z
 ---------------------------------------------------------------------
      1          6           0       -0.497494   -2.687166    0.000000
      2          1           0       -0.342710   -3.764978    0.000000
      3          1           0       -1.534982   -2.351217    0.000000
      4          6           0        0.544147   -1.846239    0.000000
      5          1           0        1.548884   -2.275875    0.000000
      6          6           0        0.535288   -0.403072    0.000000
      7          1           0        1.531522    0.045058    0.000000
      8          6           0       -0.535288    0.403072    0.000000
      9          1           0       -1.531522   -0.045058    0.000000
     10          6           0       -0.544147    1.846239    0.000000
     11          1           0       -1.548884    2.275875    0.000000
     12          6           0        0.497494    2.687166    0.000000
     13          1           0        0.342710    3.764978    0.000000
     14          1           0        1.534982    2.351217    0.000000
 ---------------------------------------------------------------------
                    Distance matrix (angstroms):
                    1          2          3          4          5
     1  C    0.000000
     2  H    1.088869   0.000000
     3  H    1.090524   1.849387   0.000000
     4  C    1.338721   2.113782   2.139574   0.000000
     5  H    2.087300   2.407395   3.084785   1.092741   0.000000
     6  C    2.506736   3.474664   2.842760   1.443194   2.129500
     7  H    3.403227   4.246071   3.891732   2.133522   2.320998
     8  C    3.090469   4.172496   2.930101   2.494910   3.394190
     9  H    2.837243   3.905263   2.306161   2.748209   3.803346
    10  C    4.533645   5.614831   4.312817   3.849516   4.623051
    11  H    5.073184   6.160094   4.627112   4.623051   5.505869
    12  C    5.465661   6.506620   5.432887   4.533645   5.073184
    13  H    6.506620   7.561087   6.397934   5.614831   6.160094
    14  H    5.432887   6.397934   5.615831   4.312817   4.627112
                    6          7          8          9         10
     6  C    0.000000
     7  H    1.092384   0.000000
     8  C    1.340149   2.097588   0.000000
     9  H    2.097588   3.064370   1.092384   0.000000
    10  C    2.494910   2.748209   1.443194   2.133522   0.000000
    11  H    3.394190   3.803346   2.129500   2.320998   1.092741
    12  C    3.090469   2.837243   2.506736   3.403227   1.338721
    13  H    4.172496   3.905263   3.474664   4.246071   2.113782
    14  H    2.930101   2.306161   2.842760   3.891732   2.139574
                   11         12         13         14
    11  H    0.000000
    12  C    2.087300   0.000000
    13  H    2.407395   1.088869   0.000000
    14  H    3.084785   1.090524   1.849387   0.000000
 Stoichiometry    C6H8
 Framework group  C2H[SGH(C6H8)]
 Deg. of freedom    13
 Full point group                 C2H     NOp   4
 Largest Abelian subgroup         C2H     NOp   4
 Largest concise Abelian subgroup C2      NOp   2
                         Standard orientation:                         
 ---------------------------------------------------------------------
 Center     Atomic      Atomic             Coordinates (Angstroms)
 Number     Number       Type             X           Y           Z
 ---------------------------------------------------------------------
      1          6           0        0.653812    2.653468    0.000000
      2          1           0        1.238909    3.571780    0.000000
      3          1           0       -0.429941    2.774804    0.000000
      4          6           0        1.256472    1.458071    0.000000
      5          1           0        2.348982    1.435594    0.000000
      6          6           0        0.653812    0.146732    0.000000
      7          1           0        1.376932   -0.672047    0.000000
      8          6           0       -0.653812   -0.146732    0.000000
      9          1           0       -1.376932    0.672047    0.000000
     10          6           0       -1.256472   -1.458071    0.000000
     11          1           0       -2.348982   -1.435594    0.000000
     12          6           0       -0.653812   -2.653468    0.000000
     13          1           0       -1.238909   -3.571780    0.000000
     14          1           0        0.429941   -2.774804    0.000000
 ---------------------------------------------------------------------
 Rotational constants (GHZ):     14.7108836      1.6340294      1.4706726
 Standard basis: 6-31G(d) (6D, 7F)
 There are    41 symmetry adapted basis functions of AG  symmetry.
 There are    12 symmetry adapted basis functions of BG  symmetry.
 There are    12 symmetry adapted basis functions of AU  symmetry.
 There are    41 symmetry adapted basis functions of BU  symmetry.
 Integral buffers will be    131072 words long.
 Raffenetti 2 integral format.
 Two-electron integral symmetry is turned on.
   106 basis functions,   200 primitive gaussians,   106 cartesian basis functions
    22 alpha electrons       22 beta electrons
       nuclear repulsion energy       197.7414066856 Hartrees.
 NAtoms=   14 NActive=   14 NUniq=    7 SFac= 4.00D+00 NAtFMM=   60 NAOKFM=F Big=F
 One-electron integrals computed using PRISM.
 NBasis=   106 RedAO= T  NBF=    41    12    12    41
 NBsUse=   106 1.00D-06 NBFU=    41    12    12    41
 Initial guess read from the read-write file.
 B after Tr=     0.000000    0.000000    0.000000
         Rot=    1.000000    0.000000    0.000000    0.000000 Ang=   0.00 deg.
 Initial guess orbital symmetries:
       Occupied  (AG) (BU) (AG) (BU) (BU) (AG) (AG) (BU) (AG) (BU)
                 (AG) (BU) (BU) (AG) (AG) (BU) (BU) (AG) (AG) (AU)
                 (BG) (AU)
       Virtual   (BG) (AU) (BU) (AG) (BG) (BU) (AG) (BU) (AG) (BU)
                 (AG) (BU) (BU) (AG) (AG) (BU) (AG) (BU) (AU) (BG)
                 (AG) (BU) (AG) (AU) (BG) (BU) (AG) (AU) (BU) (BG)
                 (AG) (BU) (AG) (BU) (AG) (BU) (AG) (BU) (AG) (BU)
                 (BU) (AG) (BU) (AG) (BU) (AG) (AU) (BG) (BG) (AG)
                 (AU) (BU) (AU) (BG) (AU) (BU) (AG) (AG) (BU) (AG)
                 (BU) (BG) (AG) (AU) (BU) (BU) (BG) (AG) (AU) (AG)
                 (AG) (BU) (BG) (BU) (AG) (BU) (BU) (AG) (AG) (BU)
                 (AG) (BU) (AG) (BU)
 Harris functional with IExCor=  402 diagonalized for initial guess.
 ExpMin= 1.61D-01 ExpMax= 3.05D+03 ExpMxC= 4.57D+02 IAcc=1 IRadAn=         1 AccDes= 0.00D+00
 HarFok:  IExCor=  402 AccDes= 0.00D+00 IRadAn=         1 IDoV= 1
 ScaDFX=  1.000000  1.000000  1.000000  1.000000
 FoFCou: FMM=F IPFlag=           0 FMFlag=      100000 FMFlg1=           0
         NFxFlg=           0 DoJE=T BraDBF=F KetDBF=T FulRan=T
         Omega=  0.000000  0.000000  1.000000  0.000000  0.000000 ICntrl=     500 IOpCl=  0
         NMat0=    1 NMatS0=    1 NMatT0=    0 NMatD0=    1 NMtDS0=    0 NMtDT0=    0
         I1Cent=           4 NGrid=           0.
 Petite list used in FoFCou.
 Requested convergence on RMS density matrix=1.00D-08 within 128 cycles.
 Requested convergence on MAX density matrix=1.00D-06.
 Requested convergence on             energy=1.00D-06.
 No special actions if energy rises.
 Keep R1 ints in memory in canonical form, NReq=17179936.
 Integral accuracy reduced to 1.0D-05 until final iterations.
 Initial convergence to 1.0D-05 achieved.  Increase integral accuracy.
 SCF Done:  E(RB3LYP) =  -233.385505364     A.U. after   11 cycles
             Convg  =    0.7184D-08             -V/T =  2.0098
 Calling FoFJK, ICntrl=      2127 FMM=F ISym2X=1 I1Cent= 0 IOpClX= 0 NMat=1 NMatS=1 NMatT=0.
 ***** Axes restored to original set *****
 -------------------------------------------------------------------
 Center     Atomic                   Forces (Hartrees/Bohr)
 Number     Number              X              Y              Z
 -------------------------------------------------------------------
      1        6          -0.005353942   -0.005833036    0.000000000
      2        1          -0.000643182    0.002036670    0.000000000
      3        1           0.002399638   -0.000195927    0.000000000
      4        6           0.006729467   -0.009086528    0.000000000
      5        1          -0.002446244   -0.001546865    0.000000000
      6        6           0.011650996    0.004385615    0.000000000
      7        1          -0.002397282    0.001323794    0.000000000
      8        6          -0.011650996   -0.004385615    0.000000000
      9        1           0.002397282   -0.001323794    0.000000000
     10        6          -0.006729467    0.009086528    0.000000000
     11        1           0.002446244    0.001546865    0.000000000
     12        6           0.005353942    0.005833036    0.000000000
     13        1           0.000643182   -0.002036670    0.000000000
     14        1          -0.002399638    0.000195927    0.000000000
 -------------------------------------------------------------------
 Cartesian Forces:  Max     0.011650996 RMS     0.004207441

 GradGradGradGradGradGradGradGradGradGradGradGradGradGradGradGradGradGrad
 Berny optimization.
 Using GEDIIS/GDIIS optimizer.
 Internal  Forces:  Max     0.014629338 RMS     0.003828182
 Search for a local minimum.
 Step number   3 out of a maximum of   61
 All quantities printed in internal units (Hartrees-Bohrs-Radians)
 Mixed Optimization -- RFO/linear search
 Update second derivatives using D2CorX and points    1    2    3
 DE= -1.52D-03 DEPred=-2.84D-03 R= 5.34D-01
 SS=  1.41D+00  RLast= 2.09D-01 DXNew= 8.4853D-01 6.2611D-01
 Trust test= 5.34D-01 RLast= 2.09D-01 DXMaxT set to 6.26D-01
 ITU=  1  1  0
 Use linear search instead of GDIIS.
     Eigenvalues ---    0.00292   0.00292   0.01372   0.01372   0.01535
     Eigenvalues ---    0.01535   0.02365   0.02689   0.02689   0.02689
     Eigenvalues ---    0.02689   0.15161   0.16000   0.16000   0.16000
     Eigenvalues ---    0.16000   0.16000   0.16082   0.16392   0.21378
     Eigenvalues ---    0.22000   0.22000   0.22471   0.28889   0.35489
     Eigenvalues ---    0.36996   0.37248   0.37343   0.37368   0.37368
     Eigenvalues ---    0.37552   0.37596   0.39142   0.51562   0.54042
     Eigenvalues ---    0.55751
 RFO step:  Lambda=-1.59991537D-04 EMin= 2.91594223D-03
 Quartic linear search produced a step of -0.36566.
 Iteration  1 RMS(Cart)=  0.01862323 RMS(Int)=  0.00009622
 Iteration  2 RMS(Cart)=  0.00012854 RMS(Int)=  0.00000000
 Iteration  3 RMS(Cart)=  0.00000000 RMS(Int)=  0.00000000
 ClnCor:  largest displacement from symmetrization is 4.16D-11 for atom    12.
 Variable       Old X    -DE/DX   Delta X   Delta X   Delta X     New X
                                 (Linear)    (Quad)   (Total)
    R1        2.05766  -0.00211  -0.00534   0.00005  -0.00529   2.05238
    R2        2.06079  -0.00234  -0.00847   0.00260  -0.00587   2.05492
    R3        2.52982   0.00531   0.00523   0.00240   0.00763   2.53745
    R4        2.06498  -0.00164  -0.00707   0.00233  -0.00475   2.06024
    R5        2.72724   0.01463   0.04121  -0.00116   0.04005   2.76729
    R6        2.06431  -0.00164  -0.00974   0.00492  -0.00482   2.05949
    R7        2.53251   0.01330   0.01101   0.00937   0.02038   2.55289
    R8        2.06431  -0.00164  -0.00974   0.00492  -0.00482   2.05949
    R9        2.72724   0.01463   0.04121  -0.00116   0.04005   2.76729
   R10        2.06498  -0.00164  -0.00707   0.00233  -0.00475   2.06024
   R11        2.52982   0.00531   0.00523   0.00240   0.00763   2.53745
   R12        2.05766  -0.00211  -0.00534   0.00005  -0.00529   2.05238
   R13        2.06079  -0.00234  -0.00847   0.00260  -0.00587   2.05492
    A1        2.02659   0.00014   0.01138  -0.00836   0.00302   2.02961
    A2        2.10734   0.00086  -0.00440   0.00770   0.00330   2.11064
    A3        2.14925  -0.00100  -0.00698   0.00066  -0.00632   2.14293
    A4        2.05833  -0.00173  -0.00178  -0.00402  -0.00580   2.05253
    A5        2.24384  -0.00146  -0.01278   0.00224  -0.01053   2.23331
    A6        1.98101   0.00320   0.01455   0.00178   0.01633   1.99735
    A7        1.98737   0.00253   0.01155   0.00271   0.01425   2.00162
    A8        2.22235  -0.00053  -0.01301   0.00555  -0.00746   2.21489
    A9        2.07347  -0.00199   0.00147  -0.00826  -0.00679   2.06667
   A10        2.07347  -0.00199   0.00147  -0.00826  -0.00679   2.06667
   A11        2.22235  -0.00053  -0.01301   0.00555  -0.00746   2.21489
   A12        1.98737   0.00253   0.01155   0.00271   0.01425   2.00162
   A13        1.98101   0.00320   0.01455   0.00178   0.01633   1.99735
   A14        2.24384  -0.00146  -0.01278   0.00224  -0.01053   2.23331
   A15        2.05833  -0.00173  -0.00178  -0.00402  -0.00580   2.05253
   A16        2.10734   0.00086  -0.00440   0.00770   0.00330   2.11064
   A17        2.14925  -0.00100  -0.00698   0.00066  -0.00632   2.14293
   A18        2.02659   0.00014   0.01138  -0.00836   0.00302   2.02961
    D1        0.00000   0.00000   0.00000   0.00000   0.00000   0.00000
    D2        3.14159   0.00000   0.00000   0.00000   0.00000   3.14159
    D3        3.14159   0.00000   0.00000   0.00000   0.00000   3.14159
    D4        0.00000   0.00000   0.00000   0.00000   0.00000   0.00000
    D5        3.14159   0.00000   0.00000   0.00000   0.00000   3.14159
    D6        0.00000   0.00000   0.00000   0.00000   0.00000   0.00000
    D7        0.00000   0.00000   0.00000   0.00000   0.00000   0.00000
    D8        3.14159   0.00000   0.00000   0.00000   0.00000   3.14159
    D9        0.00000   0.00000   0.00000   0.00000   0.00000   0.00000
   D10        3.14159   0.00000   0.00000   0.00000   0.00000   3.14159
   D11        3.14159   0.00000   0.00000   0.00000   0.00000   3.14159
   D12        0.00000   0.00000   0.00000   0.00000   0.00000   0.00000
   D13        3.14159   0.00000   0.00000   0.00000   0.00000   3.14159
   D14        0.00000   0.00000   0.00000   0.00000   0.00000   0.00000
   D15        0.00000   0.00000   0.00000   0.00000   0.00000   0.00000
   D16        3.14159   0.00000   0.00000   0.00000   0.00000   3.14159
   D17        3.14159   0.00000   0.00000   0.00000   0.00000   3.14159
   D18        0.00000   0.00000   0.00000   0.00000   0.00000   0.00000
   D19        0.00000   0.00000   0.00000   0.00000   0.00000   0.00000
   D20        3.14159   0.00000   0.00000   0.00000   0.00000   3.14159
         Item               Value     Threshold  Converged?
 Maximum Force            0.014629     0.000450     NO 
 RMS     Force            0.003828     0.000300     NO 
 Maximum Displacement     0.060419     0.001800     NO 
 RMS     Displacement     0.018558     0.001200     NO 
 Predicted change in Energy=-1.001830D-03
 GradGradGradGradGradGradGradGradGradGradGradGradGradGradGradGradGradGrad

                          Input orientation:                          
 ---------------------------------------------------------------------
 Center     Atomic      Atomic             Coordinates (Angstroms)
 Number     Number       Type             X           Y           Z
 ---------------------------------------------------------------------
      1          6           0       -0.495463   -2.700263    0.000000
      2          1           0       -0.353346   -3.776997    0.000000
      3          1           0       -1.525054   -2.350381    0.000000
      4          6           0        0.556123   -1.865297    0.000000
      5          1           0        1.552491   -2.307847    0.000000
      6          6           0        0.543585   -0.400962    0.000000
      7          1           0        1.529899    0.062634    0.000000
      8          6           0       -0.543585    0.400962    0.000000
      9          1           0       -1.529899   -0.062634    0.000000
     10          6           0       -0.556123    1.865297    0.000000
     11          1           0       -1.552491    2.307847    0.000000
     12          6           0        0.495463    2.700263    0.000000
     13          1           0        0.353346    3.776997    0.000000
     14          1           0        1.525054    2.350381    0.000000
 ---------------------------------------------------------------------
                    Distance matrix (angstroms):
                    1          2          3          4          5
     1  C    0.000000
     2  H    1.086072   0.000000
     3  H    1.087417   1.846113   0.000000
     4  C    1.342759   2.117010   2.136961   0.000000
     5  H    2.085212   2.406370   3.077839   1.090230   0.000000
     6  C    2.523173   3.493150   2.842446   1.464388   2.157337
     7  H    3.425739   4.276608   3.892991   2.159897   2.370589
     8  C    3.101599   4.182288   2.921159   2.518986   3.425082
     9  H    2.833222   3.896251   2.287752   2.757006   3.813412
    10  C    4.565963   5.645937   4.325595   3.892868   4.675616
    11  H    5.118445   6.201877   4.658309   4.675616   5.562873
    12  C    5.490685   6.532639   5.439806   4.565963   5.118445
    13  H    6.532639   7.586978   6.408834   5.645937   6.201877
    14  H    5.439806   6.408834   5.603599   4.325595   4.658309
                    6          7          8          9         10
     6  C    0.000000
     7  H    1.089833   0.000000
     8  C    1.350934   2.100905   0.000000
     9  H    2.100905   3.062361   1.089833   0.000000
    10  C    2.518986   2.757006   1.464388   2.159897   0.000000
    11  H    3.425082   3.813412   2.157337   2.370589   1.090230
    12  C    3.101599   2.833222   2.523173   3.425739   1.342759
    13  H    4.182288   3.896251   3.493150   4.276608   2.117010
    14  H    2.921159   2.287752   2.842446   3.892991   2.136961
                   11         12         13         14
    11  H    0.000000
    12  C    2.085212   0.000000
    13  H    2.406370   1.086072   0.000000
    14  H    3.077839   1.087417   1.846113   0.000000
 Stoichiometry    C6H8
 Framework group  C2H[SGH(C6H8)]
 Deg. of freedom    13
 Full point group                 C2H     NOp   4
 Largest Abelian subgroup         C2H     NOp   4
 Largest concise Abelian subgroup C2      NOp   2
                         Standard orientation:                         
 ---------------------------------------------------------------------
 Center     Atomic      Atomic             Coordinates (Angstroms)
 Number     Number       Type             X           Y           Z
 ---------------------------------------------------------------------
      1          6           0        0.660472    2.664711    0.000000
      2          1           0        1.233380    3.587385    0.000000
      3          1           0       -0.421850    2.769860    0.000000
      4          6           0        1.274913    1.470783    0.000000
      5          1           0        2.365120    1.463761    0.000000
      6          6           0        0.660472    0.141537    0.000000
      7          1           0        1.368363   -0.687092    0.000000
      8          6           0       -0.660472   -0.141537    0.000000
      9          1           0       -1.368363    0.687092    0.000000
     10          6           0       -1.274913   -1.470783    0.000000
     11          1           0       -2.365120   -1.463761    0.000000
     12          6           0       -0.660472   -2.664711    0.000000
     13          1           0       -1.233380   -3.587385    0.000000
     14          1           0        0.421850   -2.769860    0.000000
 ---------------------------------------------------------------------
 Rotational constants (GHZ):     14.5072970      1.6142421      1.4526088
 Standard basis: 6-31G(d) (6D, 7F)
 There are    41 symmetry adapted basis functions of AG  symmetry.
 There are    12 symmetry adapted basis functions of BG  symmetry.
 There are    12 symmetry adapted basis functions of AU  symmetry.
 There are    41 symmetry adapted basis functions of BU  symmetry.
 Integral buffers will be    131072 words long.
 Raffenetti 2 integral format.
 Two-electron integral symmetry is turned on.
   106 basis functions,   200 primitive gaussians,   106 cartesian basis functions
    22 alpha electrons       22 beta electrons
       nuclear repulsion energy       196.6298267120 Hartrees.
 NAtoms=   14 NActive=   14 NUniq=    7 SFac= 4.00D+00 NAtFMM=   60 NAOKFM=F Big=F
 One-electron integrals computed using PRISM.
 NBasis=   106 RedAO= T  NBF=    41    12    12    41
 NBsUse=   106 1.00D-06 NBFU=    41    12    12    41
 Initial guess read from the read-write file.
 B after Tr=     0.000000    0.000000    0.000000
         Rot=    1.000000    0.000000    0.000000    0.000000 Ang=   0.00 deg.
 Initial guess orbital symmetries:
       Occupied  (AG) (BU) (AG) (BU) (BU) (AG) (AG) (BU) (AG) (BU)
                 (AG) (BU) (BU) (AG) (AG) (BU) (BU) (AG) (AG) (AU)
                 (BG) (AU)
       Virtual   (BG) (AU) (BU) (AG) (BU) (BG) (AG) (BU) (AG) (BU)
                 (AG) (BU) (BU) (AG) (AG) (BU) (AG) (BU) (AU) (BG)
                 (BU) (AG) (AU) (AG) (BG) (BU) (AG) (AU) (BU) (BG)
                 (BU) (AG) (AG) (BU) (AG) (BU) (AG) (AG) (BU) (BU)
                 (BU) (AG) (BU) (AG) (BU) (AG) (AU) (BG) (BG) (AG)
                 (AU) (BU) (AU) (BG) (AU) (AG) (BU) (AG) (BU) (AG)
                 (BU) (BG) (AG) (BU) (BU) (AU) (BG) (AG) (AU) (AG)
                 (AG) (BU) (BU) (BG) (AG) (BU) (BU) (AG) (AG) (BU)
                 (AG) (BU) (AG) (BU)
 Harris functional with IExCor=  402 diagonalized for initial guess.
 ExpMin= 1.61D-01 ExpMax= 3.05D+03 ExpMxC= 4.57D+02 IAcc=1 IRadAn=         1 AccDes= 0.00D+00
 HarFok:  IExCor=  402 AccDes= 0.00D+00 IRadAn=         1 IDoV= 1
 ScaDFX=  1.000000  1.000000  1.000000  1.000000
 FoFCou: FMM=F IPFlag=           0 FMFlag=      100000 FMFlg1=           0
         NFxFlg=           0 DoJE=T BraDBF=F KetDBF=T FulRan=T
         Omega=  0.000000  0.000000  1.000000  0.000000  0.000000 ICntrl=     500 IOpCl=  0
         NMat0=    1 NMatS0=    1 NMatT0=    0 NMatD0=    1 NMtDS0=    0 NMtDT0=    0
         I1Cent=           4 NGrid=           0.
 Petite list used in FoFCou.
 Requested convergence on RMS density matrix=1.00D-08 within 128 cycles.
 Requested convergence on MAX density matrix=1.00D-06.
 Requested convergence on             energy=1.00D-06.
 No special actions if energy rises.
 Keep R1 ints in memory in canonical form, NReq=17179936.
 Integral accuracy reduced to 1.0D-05 until final iterations.
 Initial convergence to 1.0D-05 achieved.  Increase integral accuracy.
 SCF Done:  E(RB3LYP) =  -233.386429991     A.U. after   11 cycles
             Convg  =    0.4906D-08             -V/T =  2.0103
 Calling FoFJK, ICntrl=      2127 FMM=F ISym2X=1 I1Cent= 0 IOpClX= 0 NMat=1 NMatS=1 NMatT=0.
 ***** Axes restored to original set *****
 -------------------------------------------------------------------
 Center     Atomic                   Forces (Hartrees/Bohr)
 Number     Number              X              Y              Z
 -------------------------------------------------------------------
      1        6          -0.000192488   -0.000161766    0.000000000
      2        1          -0.000095127    0.000270576    0.000000000
      3        1           0.000272542   -0.000016857    0.000000000
      4        6           0.000429682    0.000745748    0.000000000
      5        1          -0.000408361   -0.000040976    0.000000000
      6        6           0.000391277   -0.000596775    0.000000000
      7        1          -0.000496261    0.000116355    0.000000000
      8        6          -0.000391277    0.000596775    0.000000000
      9        1           0.000496261   -0.000116355    0.000000000
     10        6          -0.000429682   -0.000745748    0.000000000
     11        1           0.000408361    0.000040976    0.000000000
     12        6           0.000192488    0.000161766    0.000000000
     13        1           0.000095127   -0.000270576    0.000000000
     14        1          -0.000272542    0.000016857    0.000000000
 -------------------------------------------------------------------
 Cartesian Forces:  Max     0.000745748 RMS     0.000300658

 GradGradGradGradGradGradGradGradGradGradGradGradGradGradGradGradGradGrad
 Berny optimization.
 Using GEDIIS/GDIIS optimizer.
 Internal  Forces:  Max     0.000796843 RMS     0.000279293
 Search for a local minimum.
 Step number   4 out of a maximum of   61
 All quantities printed in internal units (Hartrees-Bohrs-Radians)
 Mixed Optimization -- En-DIIS/RFO-DIIS
 Update second derivatives using D2CorX and points    1    2    3    4
 DE= -9.25D-04 DEPred=-1.00D-03 R= 9.23D-01
 SS=  1.41D+00  RLast= 7.42D-02 DXNew= 1.0530D+00 2.2266D-01
 Trust test= 9.23D-01 RLast= 7.42D-02 DXMaxT set to 6.26D-01
 ITU=  1  1  1  0
 Use linear search instead of GDIIS.
     Eigenvalues ---    0.00292   0.00292   0.01362   0.01362   0.01522
     Eigenvalues ---    0.01522   0.02365   0.02689   0.02689   0.02689
     Eigenvalues ---    0.02689   0.15067   0.15989   0.16000   0.16000
     Eigenvalues ---    0.16000   0.16000   0.16070   0.16097   0.21842
     Eigenvalues ---    0.22000   0.22000   0.24004   0.28889   0.36565
     Eigenvalues ---    0.37143   0.37248   0.37348   0.37368   0.37368
     Eigenvalues ---    0.37590   0.37596   0.42624   0.51913   0.54042
     Eigenvalues ---    0.56510
 RFO step:  Lambda=-1.26336234D-05 EMin= 2.91594223D-03
 Quartic linear search produced a step of -0.00431.
 Iteration  1 RMS(Cart)=  0.00287242 RMS(Int)=  0.00000220
 Iteration  2 RMS(Cart)=  0.00000254 RMS(Int)=  0.00000000
 Iteration  3 RMS(Cart)=  0.00000000 RMS(Int)=  0.00000000
 ClnCor:  largest displacement from symmetrization is 4.84D-13 for atom     9.
 Variable       Old X    -DE/DX   Delta X   Delta X   Delta X     New X
                                 (Linear)    (Quad)   (Total)
    R1        2.05238  -0.00028   0.00002  -0.00073  -0.00071   2.05167
    R2        2.05492  -0.00026   0.00003  -0.00087  -0.00085   2.05407
    R3        2.53745  -0.00004  -0.00003   0.00005   0.00002   2.53747
    R4        2.06024  -0.00036   0.00002  -0.00099  -0.00097   2.05927
    R5        2.76729  -0.00080  -0.00017  -0.00147  -0.00164   2.76565
    R6        2.05949  -0.00040   0.00002  -0.00128  -0.00126   2.05823
    R7        2.55289  -0.00027  -0.00009  -0.00030  -0.00039   2.55250
    R8        2.05949  -0.00040   0.00002  -0.00128  -0.00126   2.05823
    R9        2.76729  -0.00080  -0.00017  -0.00147  -0.00164   2.76565
   R10        2.06024  -0.00036   0.00002  -0.00099  -0.00097   2.05927
   R11        2.53745  -0.00004  -0.00003   0.00005   0.00002   2.53747
   R12        2.05238  -0.00028   0.00002  -0.00073  -0.00071   2.05167
   R13        2.05492  -0.00026   0.00003  -0.00087  -0.00085   2.05407
    A1        2.02961   0.00001  -0.00001   0.00006   0.00005   2.02966
    A2        2.11064   0.00013  -0.00001   0.00069   0.00067   2.11132
    A3        2.14293  -0.00014   0.00003  -0.00075  -0.00072   2.14221
    A4        2.05253   0.00002   0.00003  -0.00083  -0.00081   2.05172
    A5        2.23331  -0.00047   0.00005  -0.00144  -0.00139   2.23192
    A6        1.99735   0.00044  -0.00007   0.00227   0.00220   1.99955
    A7        2.00162   0.00051  -0.00006   0.00260   0.00253   2.00415
    A8        2.21489  -0.00038   0.00003  -0.00111  -0.00107   2.21382
    A9        2.06667  -0.00014   0.00003  -0.00149  -0.00146   2.06521
   A10        2.06667  -0.00014   0.00003  -0.00149  -0.00146   2.06521
   A11        2.21489  -0.00038   0.00003  -0.00111  -0.00107   2.21382
   A12        2.00162   0.00051  -0.00006   0.00260   0.00253   2.00415
   A13        1.99735   0.00044  -0.00007   0.00227   0.00220   1.99955
   A14        2.23331  -0.00047   0.00005  -0.00144  -0.00139   2.23192
   A15        2.05253   0.00002   0.00003  -0.00083  -0.00081   2.05172
   A16        2.11064   0.00013  -0.00001   0.00069   0.00067   2.11132
   A17        2.14293  -0.00014   0.00003  -0.00075  -0.00072   2.14221
   A18        2.02961   0.00001  -0.00001   0.00006   0.00005   2.02966
    D1        0.00000   0.00000   0.00000   0.00000   0.00000   0.00000
    D2        3.14159   0.00000   0.00000   0.00000   0.00000   3.14159
    D3        3.14159   0.00000   0.00000   0.00000   0.00000   3.14159
    D4        0.00000   0.00000   0.00000   0.00000   0.00000   0.00000
    D5        3.14159   0.00000   0.00000   0.00000   0.00000   3.14159
    D6        0.00000   0.00000   0.00000   0.00000   0.00000   0.00000
    D7        0.00000   0.00000   0.00000   0.00000   0.00000   0.00000
    D8        3.14159   0.00000   0.00000   0.00000   0.00000   3.14159
    D9        0.00000   0.00000   0.00000   0.00000   0.00000   0.00000
   D10        3.14159   0.00000   0.00000   0.00000   0.00000   3.14159
   D11        3.14159   0.00000   0.00000   0.00000   0.00000   3.14159
   D12        0.00000   0.00000   0.00000   0.00000   0.00000   0.00000
   D13        3.14159   0.00000   0.00000   0.00000   0.00000   3.14159
   D14        0.00000   0.00000   0.00000   0.00000   0.00000   0.00000
   D15        0.00000   0.00000   0.00000   0.00000   0.00000   0.00000
   D16        3.14159   0.00000   0.00000   0.00000   0.00000   3.14159
   D17        3.14159   0.00000   0.00000   0.00000   0.00000   3.14159
   D18        0.00000   0.00000   0.00000   0.00000   0.00000   0.00000
   D19        0.00000   0.00000   0.00000   0.00000   0.00000   0.00000
   D20        3.14159   0.00000   0.00000   0.00000   0.00000   3.14159
         Item               Value     Threshold  Converged?
 Maximum Force            0.000797     0.000450     NO 
 RMS     Force            0.000279     0.000300     YES
 Maximum Displacement     0.008133     0.001800     NO 
 RMS     Displacement     0.002873     0.001200     NO 
 Predicted change in Energy=-6.343508D-06
 GradGradGradGradGradGradGradGradGradGradGradGradGradGradGradGradGradGrad

                          Input orientation:                          
 ---------------------------------------------------------------------
 Center     Atomic      Atomic             Coordinates (Angstroms)
 Number     Number       Type             X           Y           Z
 ---------------------------------------------------------------------
      1          6           0       -0.495057   -2.697519    0.000000
      2          1           0       -0.354719   -3.774110    0.000000
      3          1           0       -1.523643   -2.346077    0.000000
      4          6           0        0.557315   -1.863527    0.000000
      5          1           0        1.552445   -2.307602    0.000000
      6          6           0        0.544115   -0.400068    0.000000
      7          1           0        1.528435    0.066191    0.000000
      8          6           0       -0.544115    0.400068    0.000000
      9          1           0       -1.528435   -0.066191    0.000000
     10          6           0       -0.557315    1.863527    0.000000
     11          1           0       -1.552445    2.307602    0.000000
     12          6           0        0.495057    2.697519    0.000000
     13          1           0        0.354719    3.774110    0.000000
     14          1           0        1.523643    2.346077    0.000000
 ---------------------------------------------------------------------
                    Distance matrix (angstroms):
                    1          2          3          4          5
     1  C    0.000000
     2  H    1.085699   0.000000
     3  H    1.086968   1.845443   0.000000
     4  C    1.342770   2.117105   2.136175   0.000000
     5  H    2.084299   2.405810   3.076329   1.089718   0.000000
     6  C    2.521539   3.491713   2.839467   1.463519   2.157641
     7  H    3.425290   4.277170   3.890272   2.160297   2.373914
[...]
     Eigenvalues ---    0.17838   0.20056   0.20548   0.34362   0.35142
     Eigenvalues ---    0.35331   0.35383   0.35820   0.36043   0.36437
     Eigenvalues ---    0.36622   0.36851   0.37977   0.57861   0.61101
     Eigenvalues ---    0.61133
 Eigenvalue     1 is  -1.81D-03 should be greater than     0.000000 Eigenvector:
                          D14       D6        D13       D8        D16
   1                    0.37510   0.37510   0.35465   0.35465   0.33099
                          D5        D15       D7        D11       D9
   1                    0.33099   0.31054   0.31054   0.13480   0.08934
 Eigenvalue     2 is  -1.02D-03 should be greater than     0.000000 Eigenvector:
                          D6        D14       D5        D16       D8
   1                    0.36996  -0.36996   0.36013  -0.36013   0.34088
                          D13       D7        D15       D3        D20
   1                   -0.34088   0.33105  -0.33105   0.06394  -0.06394
 Angle between quadratic step and forces=  19.74 degrees.
 Linear search not attempted -- first point.
 Iteration  1 RMS(Cart)=  0.00007791 RMS(Int)=  0.00000000
 Iteration  2 RMS(Cart)=  0.00000000 RMS(Int)=  0.00000000
 ClnCor:  largest displacement from symmetrization is 4.26D-12 for atom    11.
 Variable       Old X    -DE/DX   Delta X   Delta X   Delta X     New X
                                 (Linear)    (Quad)   (Total)
    R1        2.05155   0.00001   0.00000   0.00003   0.00003   2.05158
    R2        2.05413   0.00002   0.00000   0.00004   0.00004   2.05417
    R3        2.53771   0.00000   0.00000   0.00000   0.00000   2.53771
    R4        2.05917   0.00001   0.00000   0.00003   0.00003   2.05920
    R5        2.76485   0.00000   0.00000   0.00003   0.00003   2.76488
    R6        2.05822   0.00002   0.00000   0.00005   0.00005   2.05827
    R7        2.55312  -0.00003   0.00000  -0.00005  -0.00005   2.55307
    R8        2.05822   0.00002   0.00000   0.00005   0.00005   2.05827
    R9        2.76485   0.00000   0.00000   0.00003   0.00003   2.76488
   R10        2.05917   0.00001   0.00000   0.00003   0.00003   2.05920
   R11        2.53771   0.00000   0.00000   0.00000   0.00000   2.53771
   R12        2.05155   0.00001   0.00000   0.00003   0.00003   2.05158
   R13        2.05413   0.00002   0.00000   0.00004   0.00004   2.05417
    A1        2.02951   0.00000   0.00000   0.00000   0.00000   2.02951
    A2        2.11157   0.00000   0.00000  -0.00001  -0.00001   2.11157
    A3        2.14210   0.00000   0.00000   0.00000   0.00000   2.14211
    A4        2.05154   0.00001   0.00000   0.00002   0.00002   2.05157
    A5        2.23129  -0.00001   0.00000  -0.00005  -0.00005   2.23124
    A6        2.00036   0.00000   0.00000   0.00002   0.00002   2.00038
    A7        2.00492   0.00001   0.00000   0.00004   0.00004   2.00496
    A8        2.21336  -0.00002   0.00000  -0.00007  -0.00007   2.21329
    A9        2.06491   0.00001   0.00000   0.00003   0.00003   2.06494
   A10        2.06491   0.00001   0.00000   0.00003   0.00003   2.06494
   A11        2.21336  -0.00002   0.00000  -0.00007  -0.00007   2.21329
   A12        2.00492   0.00001   0.00000   0.00004   0.00004   2.00496
   A13        2.00036   0.00000   0.00000   0.00002   0.00002   2.00038
   A14        2.23129  -0.00001   0.00000  -0.00005  -0.00005   2.23124
   A15        2.05154   0.00001   0.00000   0.00002   0.00002   2.05157
   A16        2.11157   0.00000   0.00000  -0.00001  -0.00001   2.11157
   A17        2.14210   0.00000   0.00000   0.00000   0.00000   2.14211
   A18        2.02951   0.00000   0.00000   0.00000   0.00000   2.02951
    D1        0.00000   0.00000   0.00000   0.00000   0.00000   0.00000
    D2        3.14159   0.00000   0.00000   0.00000   0.00000   3.14159
    D3        3.14159   0.00000   0.00000   0.00000   0.00000   3.14159
    D4        0.00000   0.00000   0.00000   0.00000   0.00000   0.00000
    D5        3.14159   0.00000   0.00000   0.00000   0.00000   3.14159
    D6        0.00000   0.00000   0.00000   0.00000   0.00000   0.00000
    D7        0.00000   0.00000   0.00000   0.00000   0.00000   0.00000
    D8        3.14159   0.00000   0.00000   0.00000   0.00000   3.14159
    D9        0.00000   0.00000   0.00000   0.00000   0.00000   0.00000
   D10        3.14159   0.00000   0.00000   0.00000   0.00000   3.14159
   D11        3.14159   0.00000   0.00000   0.00000   0.00000   3.14159
   D12        0.00000   0.00000   0.00000   0.00000   0.00000   0.00000
   D13        3.14159   0.00000   0.00000   0.00000   0.00000   3.14159
   D14        0.00000   0.00000   0.00000   0.00000   0.00000   0.00000
   D15        0.00000   0.00000   0.00000   0.00000   0.00000   0.00000
   D16        3.14159   0.00000   0.00000   0.00000   0.00000   3.14159
   D17        3.14159   0.00000   0.00000   0.00000   0.00000   3.14159
   D18        0.00000   0.00000   0.00000   0.00000   0.00000   0.00000
   D19        0.00000   0.00000   0.00000   0.00000   0.00000   0.00000
   D20        3.14159   0.00000   0.00000   0.00000   0.00000   3.14159
         Item               Value     Threshold  Converged?
 Maximum Force            0.000028     0.000450     YES
 RMS     Force            0.000009     0.000300     YES
 Maximum Displacement     0.000221     0.001800     YES
 RMS     Displacement     0.000078     0.001200     YES
 Predicted change in Energy=-5.622014D-09
 Optimization completed.
    -- Stationary point found.
                           ----------------------------
                           !   Optimized Parameters   !
                           ! (Angstroms and Degrees)  !
 --------------------------                            --------------------------
 ! Name  Definition              Value          Derivative Info.                !
 --------------------------------------------------------------------------------
 ! R1    R(1,2)                  1.0856         -DE/DX =    0.0                 !
 ! R2    R(1,3)                  1.087          -DE/DX =    0.0                 !
 ! R3    R(1,4)                  1.3429         -DE/DX =    0.0                 !
 ! R4    R(4,5)                  1.0897         -DE/DX =    0.0                 !
 ! R5    R(4,6)                  1.4631         -DE/DX =    0.0                 !
 ! R6    R(6,7)                  1.0892         -DE/DX =    0.0                 !
 ! R7    R(6,8)                  1.3511         -DE/DX =    0.0                 !
 ! R8    R(8,9)                  1.0892         -DE/DX =    0.0                 !
 ! R9    R(8,10)                 1.4631         -DE/DX =    0.0                 !
 ! R10   R(10,11)                1.0897         -DE/DX =    0.0                 !
 ! R11   R(10,12)                1.3429         -DE/DX =    0.0                 !
 ! R12   R(12,13)                1.0856         -DE/DX =    0.0                 !
 ! R13   R(12,14)                1.087          -DE/DX =    0.0                 !
 ! A1    A(2,1,3)              116.2823         -DE/DX =    0.0                 !
 ! A2    A(2,1,4)              120.9842         -DE/DX =    0.0                 !
 ! A3    A(3,1,4)              122.7335         -DE/DX =    0.0                 !
 ! A4    A(1,4,5)              117.5447         -DE/DX =    0.0                 !
 ! A5    A(1,4,6)              127.8433         -DE/DX =    0.0                 !
 ! A6    A(5,4,6)              114.612          -DE/DX =    0.0                 !
 ! A7    A(4,6,7)              114.8733         -DE/DX =    0.0                 !
 ! A8    A(4,6,8)              126.8159         -DE/DX =    0.0                 !
 ! A9    A(7,6,8)              118.3108         -DE/DX =    0.0                 !
 ! A10   A(6,8,9)              118.3108         -DE/DX =    0.0                 !
 ! A11   A(6,8,10)             126.8159         -DE/DX =    0.0                 !
 ! A12   A(9,8,10)             114.8733         -DE/DX =    0.0                 !
 ! A13   A(8,10,11)            114.612          -DE/DX =    0.0                 !
 ! A14   A(8,10,12)            127.8433         -DE/DX =    0.0                 !
 ! A15   A(11,10,12)           117.5447         -DE/DX =    0.0                 !
 ! A16   A(10,12,13)           120.9842         -DE/DX =    0.0                 !
 ! A17   A(10,12,14)           122.7335         -DE/DX =    0.0                 !
 ! A18   A(13,12,14)           116.2823         -DE/DX =    0.0                 !
 ! D1    D(2,1,4,5)              0.0            -DE/DX =    0.0                 !
 ! D2    D(2,1,4,6)            180.0            -DE/DX =    0.0                 !
 ! D3    D(3,1,4,5)            180.0            -DE/DX =    0.0                 !
 ! D4    D(3,1,4,6)              0.0            -DE/DX =    0.0                 !
 ! D5    D(1,4,6,7)            180.0            -DE/DX =    0.0                 !
 ! D6    D(1,4,6,8)              0.0            -DE/DX =    0.0                 !
 ! D7    D(5,4,6,7)              0.0            -DE/DX =    0.0                 !
 ! D8    D(5,4,6,8)            180.0            -DE/DX =    0.0                 !
 ! D9    D(4,6,8,9)              0.0            -DE/DX =    0.0                 !
 ! D10   D(4,6,8,10)           180.0            -DE/DX =    0.0                 !
 ! D11   D(7,6,8,9)            180.0            -DE/DX =    0.0                 !
 ! D12   D(7,6,8,10)             0.0            -DE/DX =    0.0                 !
 ! D13   D(6,8,10,11)          180.0            -DE/DX =    0.0                 !
 ! D14   D(6,8,10,12)            0.0            -DE/DX =    0.0                 !
 ! D15   D(9,8,10,11)            0.0            -DE/DX =    0.0                 !
 ! D16   D(9,8,10,12)          180.0            -DE/DX =    0.0                 !
 ! D17   D(8,10,12,13)         180.0            -DE/DX =    0.0                 !
 ! D18   D(8,10,12,14)           0.0            -DE/DX =    0.0                 !
 ! D19   D(11,10,12,13)          0.0            -DE/DX =    0.0                 !
 ! D20   D(11,10,12,14)        180.0            -DE/DX =    0.0                 !
 --------------------------------------------------------------------------------
 GradGradGradGradGradGradGradGradGradGradGradGradGradGradGradGradGradGrad

 1\1\GINC-STUDENT-LENOVO-S510\Freq\RB3LYP\6-31G(d)\C6H8\STUDENT\02-Mar-
 2021\0\\#N Geom=AllCheck Guess=TCheck SCRF=Check GenChk RB3LYP/6-31G(d
 ) Freq\\Title Card Required\\0,1\C,-0.4948929146,-2.696441833,0.\H,-0.
 3553282187,-3.7730670794,0.\H,-1.5233087235,-2.3444133927,0.\C,0.55795
 97442,-1.8628489464,0.\H,1.5527603096,-2.3075315186,0.\C,0.5445027597,
 -0.399815028,0.\H,1.5283779871,0.0673685183,0.\C,-0.5445027597,0.39981
 5028,0.\H,-1.5283779871,-0.0673685183,0.\C,-0.5579597442,1.8628489464,
 0.\H,-1.5527603096,2.3075315186,0.\C,0.4948929146,2.696441833,0.\H,0.3
 553282187,3.7730670794,0.\H,1.5233087235,2.3444133927,0.\\Version=EM64
 L-G09RevC.01\State=1-AG\HF=-233.3864383\RMSD=1.539e-09\RMSF=1.064e-05\
 ZeroPoint=0.1185776\Thermal=0.1240563\Dipole=0.,0.,0.\DipoleDeriv=0.03
 33948,-0.0647112,0.,-0.0659559,-0.187671,0.,0.,0.,-0.2920735,0.0482973
 ,0.0169022,0.,0.003689,-0.1056791,0.,0.,0.,0.133182,-0.0772884,0.03582
 7,0.,0.0760642,0.0226335,0.,0.,0.,0.1353907,0.1072034,-0.3482939,0.,-0
 .0543166,0.2942571,0.,0.,0.,-0.0916791,-0.1101348,0.0929946,0.,0.04735
 59,-0.0234913,0.,0.,0.,0.1100032,0.0842641,0.3328644,0.,0.0649362,0.00
 40996,0.,0.,0.,-0.1015416,-0.0857365,-0.0655832,0.,-0.0717729,-0.00414
 87,0.,0.,0.,0.1067183,0.0842641,0.3328644,0.,0.0649362,0.0040996,0.,0.
 ,0.,-0.1015416,-0.0857365,-0.0655832,0.,-0.0717729,-0.0041487,0.,0.,0.
 ,0.1067183,0.1072034,-0.3482939,0.,-0.0543166,0.2942571,0.,0.,0.,-0.09
 16791,-0.1101348,0.0929946,0.,0.0473559,-0.0234913,0.,0.,0.,0.1100032,
 0.0333948,-0.0647112,0.,-0.0659559,-0.187671,0.,0.,0.,-0.2920735,0.048
 2973,0.0169022,0.,0.003689,-0.1056791,0.,0.,0.,0.133182,-0.0772884,0.0
 35827,0.,0.0760642,0.0226335,0.,0.,0.,0.1353907\Polar=64.1878093,7.817
 6436,126.7699865,0.,0.,22.1985155\PG=C02H [SGH(C6H8)]\NImag=2\\0.76231
 629,0.08980323,0.72253633,0.,0.,0.10062571,-0.06386275,0.04436325,0.,0
 .06046042,0.03989194,-0.33932687,0.,-0.04095924,0.35929949,0.,0.,-0.02
 946159,0.,0.,0.02088857,-0.30693190,0.08746241,0.,-0.00063913,-0.00046
 618,0.,0.32872335,0.08986581,-0.09222293,0.,0.02722953,-0.00574479,0.,
 -0.09553529,0.08812066,0.,0.,-0.03513389,0.,0.,0.00266507,0.,0.,0.0212
 6099,-0.37682712,-0.20389448,0.,0.00603645,0.00498924,0.,-0.02119676,-
 0.01890385,0.,0.77556057,-0.18616969,-0.26050591,0.,-0.02807581,-0.015
 89150,0.,0.01052356,0.01359358,0.,0.09716028,0.65410068,0.,0.,-0.04970
 133,0.,0.,0.00401858,0.,0.,0.00496017,0.,0.,0.12987187,-0.02386006,0.0
 1124694,0.,0.00131493,-0.00026225,0.,-0.00213482,-0.00337068,0.,-0.283
 00727,0.10240145,0.,0.30423482,-0.02095543,0.01049973,0.,-0.00019536,0
 .00116287,0.,-0.00340817,-0.00175641,0.,0.10223607,-0.10383007,0.,-0.1
 0716148,0.11229869,0.,0.,0.00518385,0.,0.,-0.00782730,0.,0.,0.01229405
 ,0.,0.,-0.04083661,0.,0.,0.02702157,0.01426433,-0.02026099,0.,-0.00330
 846,-0.00316978,0.,0.00088070,0.00110110,0.,-0.11097722,-0.02237191,0.
 ,0.00096200,0.03065790,0.,0.76535648,-0.02369788,-0.03875952,0.,-0.001
 10669,0.00098948,0.,0.00180485,-0.00025763,0.,0.02412231,-0.24093921,0
 .,-0.00272030,-0.01320730,0.,-0.07630048,0.64682733,0.,0.,0.00605043,0
 .,0.,0.01071962,0.,0.,-0.00733690,0.,0.,-0.05841110,0.,0.,0.00304749,0
 .,0.,0.12931449,0.00111241,0.00021830,0.,-0.00005185,0.00005534,0.,0.0
 0009855,0.00022184,0.,0.00158566,0.00315914,0.,0.00124604,-0.00010685,
 0.,-0.27896746,-0.10544204,0.,0.30018082,0.00261475,-0.00527347,0.,-0.
 00120177,-0.00090918,0.,-0.00011642,0.00021512,0.,-0.03063251,-0.01347
 165,0.,0.00017904,0.00095042,0.,-0.10381839,-0.10859001,0.,0.11238635,
 0.11794353,0.,0.,0.00191291,0.,0.,-0.00002217,0.,0.,-0.00012597,0.,0.,
 0.00369581,0.,0.,-0.00095349,0.,0.,-0.04114736,0.,0.,0.02467108,-0.005
 79584,-0.00886852,0.,-0.00088286,-0.00006924,0.,-0.00034029,-0.0010411
 2,0.,0.01291724,0.02510317,0.,0.00108195,-0.00254593,0.,-0.37036497,0.
 16401262,0.,-0.02482562,0.01757159,0.,0.76535648,0.01116369,0.00630803
 ,0.,0.00016132,0.00029614,0.,-0.00031590,-0.00030170,0.,0.02096608,-0.
 04349601,0.,-0.00011570,-0.00585458,0.,0.16401262,-0.21645259,0.,-0.01
 253188,0.01343756,0.,-0.07630048,0.64682733,0.,0.,0.00070091,0.,0.,-0.
 00065234,0.,0.,0.00051272,0.,0.,0.00505945,0.,0.,0.00222749,0.,0.,-0.0
 5613560,0.,0.,0.00605068,0.,0.,0.12931449,-0.00026070,0.00027657,0.,0.
 00054268,-0.00003169,0.,0.00101032,0.00021006,0.,0.00092865,-0.0017668
 9,0.,0.00014286,0.00008541,0.,-0.02482562,-0.01253188,0.,-0.00274235,0
 .00326633,0.,-0.27896746,-0.10544204,0.,0.30018082,0.00090439,-0.00049
 749,0.,-0.00013470,0.00016801,0.,-0.00008070,-0.00171951,0.,-0.0007058
 4,-0.00061267,0.,-0.00023212,0.00021802,0.,0.01757159,0.01343756,0.,0.
 00326633,-0.00185869,0.,-0.10381839,-0.10859001,0.,0.11238635,0.117943
 53,0.,0.,0.00036503,0.,0.,-0.00023129,0.,0.,0.00117424,0.,0.,-0.006865
 75,0.,0.,-0.00013651,0.,0.,0.00605068,0.,0.,0.01161281,0.,0.,-0.041147
 36,0.,0.,0.02467108,-0.00181957,-0.00214513,0.,0.00029432,0.00000284,0
 .,0.00054322,0.00020988,0.,-0.00409078,0.00512568,0.,0.00005261,0.0014
 6940,0.,0.01291724,0.02096608,0.,0.00092865,-0.00070584,0.,-0.11097722
 ,0.02412231,0.,0.00158566,-0.03063251,0.,0.77556057,-0.00486268,-0.002
 77610,0.,-0.00010391,0.00010513,0.,0.00003445,-0.00006079,0.,0.0051256
 8,0.01351421,0.,-0.00015684,0.00027032,0.,0.02510317,-0.04349601,0.,-0
 .00176689,-0.00061267,0.,-0.02237191,-0.24093921,0.,0.00315914,-0.0134
 7165,0.,0.09716028,0.65410068,0.,0.,-0.00056111,0.,0.,-0.00014026,0.,0
 .,-0.00033699,0.,0.,0.00912423,0.,0.,0.00012305,0.,0.,0.00505945,0.,0.
 ,-0.00686575,0.,0.,-0.05841110,0.,0.,0.00369581,0.,0.,0.12987187,-0.00
 005831,0.00013981,0.,0.00002080,0.00002141,0.,0.00000564,-0.00001824,0
 .,0.00005261,-0.00015684,0.,-0.00000120,0.00004897,0.,0.00108195,-0.00
 011570,0.,0.00014286,-0.00023212,0.,0.00096200,-0.00272030,0.,0.001246
 04,0.00017904,0.,-0.28300727,0.10240145,0.,0.30423482,-0.00002600,-0.0
 0018065,0.,-0.00005918,-0.00004916,0.,-0.00003934,-0.00000057,0.,0.001
 46940,0.00027032,0.,0.00004897,-0.00052131,0.,-0.00254593,-0.00585458,
 0.,0.00008541,0.00021802,0.,0.03065790,-0.01320730,0.,-0.00010685,0.00
 095042,0.,0.10223607,-0.10383007,0.,-0.10716148,0.11229869,0.,0.,0.000
 01749,0.,0.,-0.00000486,0.,0.,0.00000813,0.,0.,0.00012305,0.,0.,-0.000
 16433,0.,0.,0.00222749,0.,0.,-0.00013651,0.,0.,0.00304749,0.,0.,-0.000
 95349,0.,0.,-0.04083661,0.,0.,0.02702157,0.00179085,0.00150465,0.,0.00
 000376,-0.00004412,0.,-0.00007138,0.00000734,0.,-0.00181957,-0.0048626
 8,0.,-0.00005831,-0.00002600,0.,-0.00579584,0.01116369,0.,-0.00026070,
 0.00090439,0.,0.01426433,-0.02369788,0.,0.00111241,0.00261475,0.,-0.37
 682712,-0.18616969,0.,-0.02386006,-0.02095543,0.,0.76231629,0.00150465
 ,0.00018408,0.,0.00004987,-0.00010324,0.,0.00010407,0.00011799,0.,-0.0
 0214513,-0.00277610,0.,0.00013981,-0.00018065,0.,-0.00886852,0.0063080
 3,0.,0.00027657,-0.00049749,0.,-0.02026099,-0.03875952,0.,0.00021830,-
 0.00527347,0.,-0.20389448,-0.26050591,0.,0.01124694,0.01049973,0.,0.08
 980323,0.72253633,0.,0.,-0.00001576,0.,0.,0.00009923,0.,0.,-0.00008185
 ,0.,0.,-0.00056111,0.,0.,0.00001749,0.,0.,0.00070091,0.,0.,0.00036503,
 0.,0.,0.00605043,0.,0.,0.00191291,0.,0.,-0.04970133,0.,0.,0.00518385,0
 .,0.,0.10062571,0.00000376,0.00004987,0.,0.00003714,0.00000887,0.,0.00
 003454,0.00002382,0.,0.00029432,-0.00010391,0.,0.00002080,-0.00005918,
 0.,-0.00088286,0.00016132,0.,0.00054268,-0.00013470,0.,-0.00330846,-0.
 00110669,0.,-0.00005185,-0.00120177,0.,0.00603645,-0.02807581,0.,0.001
 31493,-0.00019536,0.,-0.06386275,0.04436325,0.,0.06046042,-0.00004412,
 -0.00010324,0.,0.00000887,-0.00002640,0.,0.00003284,0.00003003,0.,0.00
 000284,0.00010513,0.,0.00002141,-0.00004916,0.,-0.00006924,0.00029614,
 0.,-0.00003169,0.00016801,0.,-0.00316978,0.00098948,0.,0.00005534,-0.0
 0090918,0.,0.00498924,-0.01589150,0.,-0.00026225,0.00116287,0.,0.03989
 194,-0.33932687,0.,-0.04095924,0.35929949,0.,0.,0.00009923,0.,0.,-0.00
 020650,0.,0.,0.00015525,0.,0.,-0.00014026,0.,0.,-0.00000486,0.,0.,-0.0
 0065234,0.,0.,-0.00023129,0.,0.,0.01071962,0.,0.,-0.00002217,0.,0.,0.0
 0401858,0.,0.,-0.00782730,0.,0.,-0.02946159,0.,0.,0.02088857,-0.000071
 38,0.00010407,0.,0.00003454,0.00003284,0.,0.00001796,-0.00000018,0.,0.
 00054322,0.00003445,0.,0.00000564,-0.00003934,0.,-0.00034029,-0.000315
 90,0.,0.00101032,-0.00008070,0.,0.00088070,0.00180485,0.,0.00009855,-0
 .00011642,0.,-0.02119676,0.01052356,0.,-0.00213482,-0.00340817,0.,-0.3
 0693190,0.08746241,0.,-0.00063913,-0.00046618,0.,0.32872335,0.00000734
 ,0.00011799,0.,0.00002382,0.00003003,0.,-0.00000018,-0.00001305,0.,0.0
 0020988,-0.00006079,0.,-0.00001824,-0.00000057,0.,-0.00104112,-0.00030
 170,0.,0.00021006,-0.00171951,0.,0.00110110,-0.00025763,0.,0.00022184,
 0.00021512,0.,-0.01890385,0.01359358,0.,-0.00337068,-0.00175641,0.,0.0
 8986581,-0.09222293,0.,0.02722953,-0.00574479,0.,-0.09553529,0.0881206
 6,0.,0.,-0.00008185,0.,0.,0.00015525,0.,0.,-0.00001501,0.,0.,-0.000336
 99,0.,0.,0.00000813,0.,0.,0.00051272,0.,0.,0.00117424,0.,0.,-0.0073369
 0,0.,0.,-0.00012597,0.,0.,0.00496017,0.,0.,0.01229405,0.,0.,-0.0351338
 9,0.,0.,0.00266507,0.,0.,0.02126099\\-0.00000797,-0.00000754,0.,-0.000
 00410,0.00000957,0.,0.00001406,-0.00000493,0.,0.00000912,0.00000217,0.
 ,-0.00001311,0.00000357,0.,0.00002660,-0.00002193,0.,-0.00001813,-0.00
 001167,0.,-0.00002660,0.00002193,0.,0.00001813,0.00001167,0.,-0.000009
 12,-0.00000217,0.,0.00001311,-0.00000357,0.,0.00000797,0.00000754,0.,0
 .00000410,-0.00000957,0.,-0.00001406,0.00000493,0.\\\@


 You don't have to suffer to be a poet.
 Adolescence is enough suffering for anyone.
                             -- John Ciardi
 Job cpu time:  0 days  0 hours  0 minutes 36.1 seconds.
 File lengths (MBytes):  RWF=     16 Int=      0 D2E=      0 Chk=      2 Scr=      1
 Normal termination of Gaussian 09 at Tue Mar  2 12:47:38 2021.
