 Entering Gaussian System, Link 0=g09
 Input=octa_2-cis.com
 Output=octa_2-cis.log
 Initial command:
 /home/student/g09/l1.exe /home/student/Aniruddha_1811022/Lab_3/Gau-9620.inp -scrdir=/home/student/Aniruddha_1811022/Lab_3/
 Entering Link 1 = /home/student/g09/l1.exe PID=      9623.
  
 Copyright (c) 1988,1990,1992,1993,1995,1998,2003,2009,2011,
            Gaussian, Inc.  All Rights Reserved.
  
 This is part of the Gaussian(R) 09 program.  It is based on
 the Gaussian(R) 03 system (copyright 2003, Gaussian, Inc.),
 the Gaussian(R) 98 system (copyright 1998, Gaussian, Inc.),
 the Gaussian(R) 94 system (copyright 1995, Gaussian, Inc.),
 the Gaussian 92(TM) system (copyright 1992, Gaussian, Inc.),
 the Gaussian 90(TM) system (copyright 1990, Gaussian, Inc.),
 the Gaussian 88(TM) system (copyright 1988, Gaussian, Inc.),
 the Gaussian 86(TM) system (copyright 1986, Carnegie Mellon
 University), and the Gaussian 82(TM) system (copyright 1983,
 Carnegie Mellon University). Gaussian is a federally registered
 trademark of Gaussian, Inc.
  
 This software contains proprietary and confidential information,
 including trade secrets, belonging to Gaussian, Inc.
  
 This software is provided under written license and may be
 used, copied, transmitted, or stored only in accord with that
 written license.
  
 The following legend is applicable only to US Government
 contracts under FAR:
  
                    RESTRICTED RIGHTS LEGEND
  
 Use, reproduction and disclosure by the US Government is
 subject to restrictions as set forth in subparagraphs (a)
 and (c) of the Commercial Computer Software - Restricted
 Rights clause in FAR 52.227-19.
  
 Gaussian, Inc.
 340 Quinnipiac St., Bldg. 40, Wallingford CT 06492
  
  
 ---------------------------------------------------------------
 Warning -- This program may not be used in any manner that
 competes with the business of Gaussian, Inc. or will provide
 assistance to any competitor of Gaussian, Inc.  The licensee
 of this program is prohibited from giving any competitor of
 Gaussian, Inc. access to this program.  By using this program,
 the user acknowledges that Gaussian, Inc. is engaged in the
 business of creating and licensing software in the field of
 computational chemistry and represents and warrants to the
 licensee that it is not a competitor of Gaussian, Inc. and that
 it will not use this program in any manner prohibited above.
 ---------------------------------------------------------------
  

 Cite this work as:
 Gaussian 09, Revision C.01,
 M. J. Frisch, G. W. Trucks, H. B. Schlegel, G. E. Scuseria, 
 M. A. Robb, J. R. Cheeseman, G. Scalmani, V. Barone, B. Mennucci, 
 G. A. Petersson, H. Nakatsuji, M. Caricato, X. Li, H. P. Hratchian, 
 A. F. Izmaylov, J. Bloino, G. Zheng, J. L. Sonnenberg, M. Hada, 
 M. Ehara, K. Toyota, R. Fukuda, J. Hasegawa, M. Ishida, T. Nakajima, 
 Y. Honda, O. Kitao, H. Nakai, T. Vreven, J. A. Montgomery, Jr., 
 J. E. Peralta, F. Ogliaro, M. Bearpark, J. J. Heyd, E. Brothers, 
 K. N. Kudin, V. N. Staroverov, T. Keith, R. Kobayashi, J. Normand, 
 K. Raghavachari, A. Rendell, J. C. Burant, S. S. Iyengar, J. Tomasi, 
 M. Cossi, N. Rega, J. M. Millam, M. Klene, J. E. Knox, J. B. Cross, 
 V. Bakken, C. Adamo, J. Jaramillo, R. Gomperts, R. E. Stratmann, 
 O. Yazyev, A. J. Austin, R. Cammi, C. Pomelli, J. W. Ochterski, 
 R. L. Martin, K. Morokuma, V. G. Zakrzewski, G. A. Voth, 
 P. Salvador, J. J. Dannenberg, S. Dapprich, A. D. Daniels, 
 O. Farkas, J. B. Foresman, J. V. Ortiz, J. Cioslowski, 
 and D. J. Fox, Gaussian, Inc., Wallingford CT, 2010.
 
 ******************************************
 Gaussian 09:  EM64L-G09RevC.01 23-Sep-2011
                 2-Mar-2021 
 ******************************************
 %chk=octa_2-cis.chk
 -----------------------------------------
 # b3lyp/6-31g* geom=connectivity opt freq
 -----------------------------------------
 1/14=-1,18=20,19=15,26=3,38=1,57=2/1,3;
 2/9=110,12=2,17=6,18=5,40=1/2;
 3/5=1,6=6,7=1,11=2,16=1,25=1,30=1,71=1,74=-5/1,2,3;
 4//1;
 5/5=2,38=5/2;
 6/7=2,8=2,9=2,10=2,28=1/1;
 7//1,2,3,16;
 1/14=-1,18=20,19=15/3(2);
 2/9=110/2;
 99//99;
 2/9=110/2;
 3/5=1,6=6,7=1,11=2,16=1,25=1,30=1,71=1,74=-5/1,2,3;
 4/5=5,16=3/1;
 5/5=2,38=5/2;
 7//1,2,3,16;
 1/14=-1,18=20,19=15/3(-5);
 2/9=110/2;
 6/7=2,8=2,9=2,10=2,19=2,28=1/1;
 99/9=1/99;
 -------------------
 Title Card Required
 -------------------
 Charge =  0 Multiplicity = 1
 Symbolic Z-Matrix:
 C                     0.       -3.68173  -1.11752 
 H                     0.       -4.74785  -1.10819 
 H                     0.       -3.16147  -2.0492 
 C                     0.       -2.98811   0.04662 
 H                     0.       -3.50838   0.9783 
 C                     0.       -1.4537    0.0332 
 H                     0.       -0.93344  -0.89848 
 C                     0.       -0.76008   1.19735 
 H                     0.       -1.27041   2.11966 
 C                     0.        0.76008   1.19735 
 H                     0.        1.27041   2.11966 
 C                     0.        1.4537    0.0332 
 H                     0.        0.93344  -0.89848 
 C                     0.        2.98811   0.04662 
 H                     0.        3.50838   0.9783 
 C                     0.        3.68173  -1.11752 
 H                     0.        4.74785  -1.10819 
 H                     0.        3.16147  -2.0492 
 

 GradGradGradGradGradGradGradGradGradGradGradGradGradGradGradGradGradGrad
 Berny optimization.
 Initialization pass.
                           ----------------------------
                           !    Initial Parameters    !
                           ! (Angstroms and Degrees)  !
 --------------------------                            --------------------------
 ! Name  Definition              Value          Derivative Info.                !
 --------------------------------------------------------------------------------
 ! R1    R(1,2)                  1.0662         estimate D2E/DX2                !
 ! R2    R(1,3)                  1.0671         estimate D2E/DX2                !
 ! R3    R(1,4)                  1.3551         estimate D2E/DX2                !
 ! R4    R(4,5)                  1.0671         estimate D2E/DX2                !
 ! R5    R(4,6)                  1.5345         estimate D2E/DX2                !
 ! R6    R(6,7)                  1.0671         estimate D2E/DX2                !
 ! R7    R(6,8)                  1.3551         estimate D2E/DX2                !
 ! R8    R(8,9)                  1.0541         estimate D2E/DX2                !
 ! R9    R(8,10)                 1.5202         estimate D2E/DX2                !
 ! R10   R(10,11)                1.0541         estimate D2E/DX2                !
 ! R11   R(10,12)                1.3551         estimate D2E/DX2                !
 ! R12   R(12,13)                1.0671         estimate D2E/DX2                !
 ! R13   R(12,14)                1.5345         estimate D2E/DX2                !
 ! R14   R(14,15)                1.0671         estimate D2E/DX2                !
 ! R15   R(14,16)                1.3551         estimate D2E/DX2                !
 ! R16   R(16,17)                1.0662         estimate D2E/DX2                !
 ! R17   R(16,18)                1.0671         estimate D2E/DX2                !
 ! A1    A(2,1,3)              119.6808         estimate D2E/DX2                !
 ! A2    A(2,1,4)              120.2859         estimate D2E/DX2                !
 ! A3    A(3,1,4)              120.0332         estimate D2E/DX2                !
 ! A4    A(1,4,5)              120.0332         estimate D2E/DX2                !
 ! A5    A(1,4,6)              120.2859         estimate D2E/DX2                !
 ! A6    A(5,4,6)              119.6808         estimate D2E/DX2                !
 ! A7    A(4,6,7)              119.6808         estimate D2E/DX2                !
 ! A8    A(4,6,8)              120.2859         estimate D2E/DX2                !
 ! A9    A(7,6,8)              120.0332         estimate D2E/DX2                !
 ! A10   A(6,8,9)              120.2567         estimate D2E/DX2                !
 ! A11   A(6,8,10)             120.7871         estimate D2E/DX2                !
 ! A12   A(9,8,10)             118.9561         estimate D2E/DX2                !
 ! A13   A(8,10,11)            118.9561         estimate D2E/DX2                !
 ! A14   A(8,10,12)            120.7871         estimate D2E/DX2                !
 ! A15   A(11,10,12)           120.2567         estimate D2E/DX2                !
 ! A16   A(10,12,13)           120.0332         estimate D2E/DX2                !
 ! A17   A(10,12,14)           120.2859         estimate D2E/DX2                !
 ! A18   A(13,12,14)           119.6808         estimate D2E/DX2                !
 ! A19   A(12,14,15)           119.6808         estimate D2E/DX2                !
 ! A20   A(12,14,16)           120.2859         estimate D2E/DX2                !
 ! A21   A(15,14,16)           120.0332         estimate D2E/DX2                !
 ! A22   A(14,16,17)           120.2859         estimate D2E/DX2                !
 ! A23   A(14,16,18)           120.0332         estimate D2E/DX2                !
 ! A24   A(17,16,18)           119.6808         estimate D2E/DX2                !
 ! D1    D(2,1,4,5)              0.0            estimate D2E/DX2                !
 ! D2    D(2,1,4,6)            180.0            estimate D2E/DX2                !
 ! D3    D(3,1,4,5)            180.0            estimate D2E/DX2                !
 ! D4    D(3,1,4,6)              0.0            estimate D2E/DX2                !
 ! D5    D(1,4,6,7)              0.0            estimate D2E/DX2                !
 ! D6    D(1,4,6,8)            180.0            estimate D2E/DX2                !
 ! D7    D(5,4,6,7)            180.0            estimate D2E/DX2                !
 ! D8    D(5,4,6,8)              0.0            estimate D2E/DX2                !
 ! D9    D(4,6,8,9)              0.0            estimate D2E/DX2                !
 ! D10   D(4,6,8,10)           180.0            estimate D2E/DX2                !
 ! D11   D(7,6,8,9)            180.0            estimate D2E/DX2                !
 ! D12   D(7,6,8,10)             0.0            estimate D2E/DX2                !
 ! D13   D(6,8,10,11)          180.0            estimate D2E/DX2                !
 ! D14   D(6,8,10,12)            0.0            estimate D2E/DX2                !
 ! D15   D(9,8,10,11)            0.0            estimate D2E/DX2                !
 ! D16   D(9,8,10,12)          180.0            estimate D2E/DX2                !
 ! D17   D(8,10,12,13)           0.0            estimate D2E/DX2                !
 ! D18   D(8,10,12,14)         180.0            estimate D2E/DX2                !
 ! D19   D(11,10,12,13)        180.0            estimate D2E/DX2                !
 ! D20   D(11,10,12,14)          0.0            estimate D2E/DX2                !
 ! D21   D(10,12,14,15)          0.0            estimate D2E/DX2                !
 ! D22   D(10,12,14,16)        180.0            estimate D2E/DX2                !
 ! D23   D(13,12,14,15)        180.0            estimate D2E/DX2                !
 ! D24   D(13,12,14,16)          0.0            estimate D2E/DX2                !
 ! D25   D(12,14,16,17)        180.0            estimate D2E/DX2                !
 ! D26   D(12,14,16,18)          0.0            estimate D2E/DX2                !
 ! D27   D(15,14,16,17)          0.0            estimate D2E/DX2                !
 ! D28   D(15,14,16,18)        180.0            estimate D2E/DX2                !
 --------------------------------------------------------------------------------
 Trust Radius=3.00D-01 FncErr=1.00D-07 GrdErr=1.00D-06
 Number of steps in this run=     79 maximum allowed number of steps=    108.
 GradGradGradGradGradGradGradGradGradGradGradGradGradGradGradGradGradGrad

                          Input orientation:                          
 ---------------------------------------------------------------------
 Center     Atomic      Atomic             Coordinates (Angstroms)
 Number     Number       Type             X           Y           Z
 ---------------------------------------------------------------------
      1          6           0        0.000000   -3.681730   -1.117521
      2          1           0        0.000000   -4.747850   -1.108194
      3          1           0        0.000000   -3.161468   -2.049197
      4          6           0        0.000000   -2.988115    0.046624
      5          1           0        0.000000   -3.508377    0.978300
      6          6           0        0.000000   -1.453698    0.033201
      7          1           0        0.000000   -0.933437   -0.898475
      8          6           0        0.000000   -0.760084    1.197346
      9          1           0        0.000000   -1.270410    2.119663
     10          6           0        0.000000    0.760084    1.197346
     11          1           0        0.000000    1.270410    2.119663
     12          6           0        0.000000    1.453698    0.033201
     13          1           0        0.000000    0.933437   -0.898475
     14          6           0        0.000000    2.988115    0.046624
     15          1           0        0.000000    3.508377    0.978300
     16          6           0        0.000000    3.681730   -1.117521
     17          1           0        0.000000    4.747850   -1.108194
     18          1           0        0.000000    3.161468   -2.049197
 ---------------------------------------------------------------------
                    Distance matrix (angstroms):
                    1          2          3          4          5
     1  C    0.000000
     2  H    1.066161   0.000000
     3  H    1.067095   1.844477   0.000000
     4  C    1.355114   2.104822   2.102978   0.000000
     5  H    2.102978   2.426882   3.047308   1.067095   0.000000
     6  C    2.507645   3.486290   2.693113   1.534475   2.261618
     7  H    2.757008   3.820175   2.507645   2.261618   3.186315
     8  C    3.727549   4.606278   4.038154   2.507645   2.757008
     9  H    4.036561   4.744645   4.577717   2.692211   2.512211
    10  C    5.008824   5.971001   5.091032   3.920861   4.274077
    11  H    5.916337   6.829240   6.084483   4.736298   4.913197
    12  C    5.262773   6.305711   5.063215   4.441834   5.051277
    13  H    4.620362   5.685157   4.253517   4.033829   4.822032
    14  C    6.770677   7.821686   6.496910   5.976230   6.562958
    15  H    7.489332   8.515794   7.324791   6.562958   7.016753
    16  C    7.363460   8.429585   6.906329   6.770677   7.489332
    17  H    8.429585   9.495701   7.965099   7.821686   8.515794
    18  H    6.906329   7.965099   6.322936   6.496910   7.324791
                    6          7          8          9         10
     6  C    0.000000
     7  H    1.067095   0.000000
     8  C    1.355114   2.102978   0.000000
     9  H    2.094497   3.036891   1.054088   0.000000
    10  C    2.501212   2.694527   1.520167   2.230151   0.000000
    11  H    3.431339   3.737124   2.230151   2.540820   1.054088
    12  C    2.907397   2.562506   2.501212   3.431339   1.355114
    13  H    2.562506   1.866873   2.694527   3.737124   2.102978
    14  C    4.441834   4.033829   3.920861   4.736298   2.507645
    15  H    5.051277   4.822032   4.274077   4.913197   2.757008
    16  C    5.262773   4.620362   5.008824   5.916337   3.727549
    17  H    6.305711   5.685157   5.971001   6.829240   4.606278
    18  H    5.063215   4.253517   5.091032   6.084483   4.038154
                   11         12         13         14         15
    11  H    0.000000
    12  C    2.094497   0.000000
    13  H    3.036891   1.067095   0.000000
    14  C    2.692211   1.534475   2.261618   0.000000
    15  H    2.512211   2.261618   3.186315   1.067095   0.000000
    16  C    4.036561   2.507645   2.757008   1.355114   2.102978
    17  H    4.744645   3.486290   3.820175   2.104822   2.426882
    18  H    4.577717   2.693113   2.507645   2.102978   3.047308
                   16         17         18
    16  C    0.000000
    17  H    1.066161   0.000000
    18  H    1.067095   1.844477   0.000000
 Stoichiometry    C8H10
 Framework group  C2V[SGV(C8H10)]
 Deg. of freedom    17
 Full point group                 C2V     NOp   4
 Largest Abelian subgroup         C2V     NOp   4
 Largest concise Abelian subgroup C2      NOp   2
                         Standard orientation:                         
 ---------------------------------------------------------------------
 Center     Atomic      Atomic             Coordinates (Angstroms)
 Number     Number       Type             X           Y           Z
 ---------------------------------------------------------------------
      1          6           0        0.000000    3.681730   -1.117521
      2          1           0        0.000000    4.747850   -1.108194
      3          1           0        0.000000    3.161468   -2.049197
      4          6           0        0.000000    2.988115    0.046624
      5          1           0        0.000000    3.508377    0.978300
      6          6           0        0.000000    1.453698    0.033201
      7          1           0        0.000000    0.933437   -0.898475
      8          6           0        0.000000    0.760084    1.197346
      9          1           0        0.000000    1.270410    2.119663
     10          6           0        0.000000   -0.760084    1.197346
     11          1           0        0.000000   -1.270410    2.119663
     12          6           0        0.000000   -1.453698    0.033201
     13          1           0        0.000000   -0.933437   -0.898475
     14          6           0        0.000000   -2.988115    0.046624
     15          1           0        0.000000   -3.508377    0.978300
     16          6           0        0.000000   -3.681730   -1.117521
     17          1           0        0.000000   -4.747850   -1.108194
     18          1           0        0.000000   -3.161468   -2.049197
 ---------------------------------------------------------------------
 Rotational constants (GHZ):      5.7444847      0.7223819      0.6416881
 Standard basis: 6-31G(d) (6D, 7F)
 There are    54 symmetry adapted basis functions of A1  symmetry.
 There are    16 symmetry adapted basis functions of A2  symmetry.
 There are    16 symmetry adapted basis functions of B1  symmetry.
 There are    54 symmetry adapted basis functions of B2  symmetry.
 Integral buffers will be    131072 words long.
 Raffenetti 2 integral format.
 Two-electron integral symmetry is turned on.
   140 basis functions,   264 primitive gaussians,   140 cartesian basis functions
    29 alpha electrons       29 beta electrons
       nuclear repulsion energy       300.4476246790 Hartrees.
 NAtoms=   18 NActive=   18 NUniq=    9 SFac= 4.00D+00 NAtFMM=   60 NAOKFM=F Big=F
 One-electron integrals computed using PRISM.
 NBasis=   140 RedAO= T  NBF=    54    16    16    54
 NBsUse=   140 1.00D-06 NBFU=    54    16    16    54
 Harris functional with IExCor=  402 diagonalized for initial guess.
 ExpMin= 1.61D-01 ExpMax= 3.05D+03 ExpMxC= 4.57D+02 IAcc=1 IRadAn=         1 AccDes= 0.00D+00
 HarFok:  IExCor=  402 AccDes= 0.00D+00 IRadAn=         1 IDoV= 1
 ScaDFX=  1.000000  1.000000  1.000000  1.000000
 FoFCou: FMM=F IPFlag=           0 FMFlag=      100000 FMFlg1=           0
         NFxFlg=           0 DoJE=T BraDBF=F KetDBF=T FulRan=T
         Omega=  0.000000  0.000000  1.000000  0.000000  0.000000 ICntrl=     500 IOpCl=  0
         NMat0=    1 NMatS0=    1 NMatT0=    0 NMatD0=    1 NMtDS0=    0 NMtDT0=    0
         I1Cent=           4 NGrid=           0.
 Petite list used in FoFCou.
 Initial guess orbital symmetries:
       Occupied  (B2) (A1) (A1) (B2) (B2) (A1) (B2) (A1) (A1) (B2)
                 (A1) (B2) (A1) (A1) (B2) (B2) (A1) (A1) (B2) (B2)
                 (A1) (A1) (B2) (B2) (A1) (B1) (A2) (B1) (A2)
       Virtual   (B1) (A2) (B1) (A2) (A1) (A1) (B2) (A1) (B2) (B2)
                 (A1) (A1) (B2) (B2) (B2) (A1) (A1) (A1) (B2) (B2)
                 (A1) (B2) (B2) (A1) (B1) (A2) (B1) (B2) (A1) (A2)
                 (A1) (B2) (A1) (B1) (A1) (B2) (B1) (A2) (A2) (B2)
                 (A1) (A1) (B2) (A1) (B2) (B2) (A1) (B2) (A1) (A1)
                 (B2) (B2) (A1) (B2) (A1) (B2) (A1) (B2) (B1) (A1)
                 (B2) (B1) (A2) (A1) (B2) (A2) (B1) (A2) (B1) (B2)
                 (A2) (B1) (A1) (A1) (B2) (A1) (B2) (A1) (A2) (B2)
                 (A1) (B1) (A1) (B2) (B2) (A2) (B2) (A1) (B1) (A1)
                 (B2) (B1) (A2) (A1) (A2) (B2) (B2) (A1) (A1) (B2)
                 (A1) (B2) (B2) (A1) (B2) (A1) (B2) (A1) (B2) (A1)
                 (B2)
 The electronic state of the initial guess is 1-A1.
 Requested convergence on RMS density matrix=1.00D-08 within 128 cycles.
 Requested convergence on MAX density matrix=1.00D-06.
 Requested convergence on             energy=1.00D-06.
 No special actions if energy rises.
 Integral accuracy reduced to 1.0D-05 until final iterations.
 Initial convergence to 1.0D-05 achieved.  Increase integral accuracy.
 SCF Done:  E(RB3LYP) =  -310.779019457     A.U. after   14 cycles
             Convg  =    0.2852D-08             -V/T =  2.0104

 **********************************************************************

            Population analysis using the SCF density.

 **********************************************************************

 Orbital symmetries:
       Occupied  (B2) (A1) (A1) (B2) (A1) (B2) (B2) (A1) (A1) (B2)
                 (A1) (B2) (A1) (A1) (B2) (B2) (A1) (A1) (B2) (A1)
                 (B2) (A1) (B2) (B2) (A1) (B1) (A2) (B1) (A2)
       Virtual   (B1) (A2) (B1) (A1) (A2) (A1) (B2) (A1) (B2) (A1)
                 (B2) (A1) (B2) (B2) (A1) (B2) (A1) (B2) (A1) (B2)
                 (A1) (B2) (A1) (B1) (B2) (A2) (B1) (A1) (B2) (A2)
                 (A1) (B1) (B2) (A1) (B1) (A1) (B2) (A2) (A2) (A1)
                 (B2) (A1) (B2) (B2) (A1) (B2) (A1) (B2) (A1) (A1)
                 (B2) (B2) (A1) (B2) (A1) (B2) (A1) (B2) (A1) (B2)
                 (B1) (A1) (B1) (A2) (B2) (A2) (B1) (B2) (A2) (B1)
                 (A2) (B1) (A1) (A1) (B2) (A1) (B2) (A2) (A1) (B2)
                 (A1) (B1) (A1) (B2) (B2) (A2) (A1) (B2) (B1) (A1)
                 (B2) (B1) (A2) (A2) (A1) (B2) (B2) (A1) (A1) (B2)
                 (A1) (B2) (B2) (A1) (B2) (A1) (B2) (A1) (B2) (A1)
                 (B2)
 The electronic state is 1-A1.
 Alpha  occ. eigenvalues --  -10.19707 -10.19707 -10.19417 -10.19416 -10.19242
 Alpha  occ. eigenvalues --  -10.19220 -10.17905 -10.17905  -0.81456  -0.78394
 Alpha  occ. eigenvalues --   -0.75129  -0.70448  -0.62160  -0.57481  -0.56753
 Alpha  occ. eigenvalues --   -0.54143  -0.48073  -0.46226  -0.45140  -0.41571
 Alpha  occ. eigenvalues --   -0.40979  -0.38531  -0.37132  -0.35570  -0.33728
 Alpha  occ. eigenvalues --   -0.33445  -0.30109  -0.25608  -0.19902
 Alpha virt. eigenvalues --   -0.05050   0.01624   0.05725   0.09767   0.10643
 Alpha virt. eigenvalues --    0.12797   0.13065   0.13552   0.13618   0.17128
 Alpha virt. eigenvalues --    0.17292   0.19583   0.20580   0.23091   0.29651
 Alpha virt. eigenvalues --    0.29674   0.31561   0.35121   0.35768   0.38168
 Alpha virt. eigenvalues --    0.46344   0.47290   0.51048   0.52247   0.53451
 Alpha virt. eigenvalues --    0.54512   0.57514   0.59420   0.59477   0.60360
 Alpha virt. eigenvalues --    0.61205   0.63105   0.63280   0.64930   0.67083
 Alpha virt. eigenvalues --    0.67794   0.68187   0.69151   0.72625   0.84012
 Alpha virt. eigenvalues --    0.84696   0.87081   0.87158   0.88730   0.88874
 Alpha virt. eigenvalues --    0.90338   0.92359   0.93339   0.94414   0.96628
 Alpha virt. eigenvalues --    0.98484   1.02422   1.04414   1.09236   1.09967
 Alpha virt. eigenvalues --    1.10922   1.16079   1.16398   1.28795   1.32089
 Alpha virt. eigenvalues --    1.32826   1.34287   1.36248   1.36756   1.37913
 Alpha virt. eigenvalues --    1.46022   1.46935   1.56335   1.57170   1.58063
 Alpha virt. eigenvalues --    1.70488   1.72189   1.76069   1.77182   1.77463
 Alpha virt. eigenvalues --    1.91619   1.97383   1.99525   2.00871   2.01557
 Alpha virt. eigenvalues --    2.04938   2.06757   2.11365   2.15795   2.21858
 Alpha virt. eigenvalues --    2.22536   2.27116   2.27804   2.33403   2.35417
 Alpha virt. eigenvalues --    2.38042   2.40159   2.40850   2.49190   2.49589
 Alpha virt. eigenvalues --    2.65523   2.70729   2.71163   2.83451   2.83662
 Alpha virt. eigenvalues --    2.89595   2.99698   3.11176   4.05777   4.07406
 Alpha virt. eigenvalues --    4.09707   4.17150   4.18752   4.32189   4.41434
 Alpha virt. eigenvalues --    4.52660
          Condensed to atoms (all electrons):
              1          2          3          4          5          6
     1  C    5.063680   0.365733   0.372029   0.627243  -0.052855  -0.025723
     2  H    0.365733   0.558276  -0.041055  -0.023482  -0.006573   0.003887
     3  H    0.372029  -0.041055   0.562893  -0.035394   0.005878  -0.012116
     4  C    0.627243  -0.023482  -0.035394   4.783500   0.369321   0.418969
     5  H   -0.052855  -0.006573   0.005878   0.369321   0.593448  -0.045492
     6  C   -0.025723   0.003887  -0.012116   0.418969  -0.045492   4.890470
     7  H   -0.003972  -0.000004   0.004854  -0.043285   0.003893   0.354825
     8  C    0.002340  -0.000174   0.000417  -0.019562  -0.004171   0.618414
     9  H    0.000401  -0.000007   0.000014  -0.008512   0.003938  -0.056646
    10  C   -0.000216   0.000002   0.000002   0.004012   0.000085  -0.027148
    11  H    0.000001   0.000000   0.000000  -0.000091   0.000000   0.004657
    12  C    0.000020   0.000000  -0.000004   0.000352  -0.000001  -0.018693
    13  H   -0.000003   0.000000   0.000000   0.000181   0.000001   0.004744
    14  C    0.000000   0.000000   0.000000  -0.000008   0.000000   0.000352
    15  H    0.000000   0.000000   0.000000   0.000000   0.000000  -0.000001
    16  C    0.000000   0.000000   0.000000   0.000000   0.000000   0.000020
    17  H    0.000000   0.000000   0.000000   0.000000   0.000000   0.000000
    18  H    0.000000   0.000000   0.000000   0.000000   0.000000  -0.000004
              7          8          9         10         11         12
     1  C   -0.003972   0.002340   0.000401  -0.000216   0.000001   0.000020
     2  H   -0.000004  -0.000174  -0.000007   0.000002   0.000000   0.000000
     3  H    0.004854   0.000417   0.000014   0.000002   0.000000  -0.000004
     4  C   -0.043285  -0.019562  -0.008512   0.004012  -0.000091   0.000352
     5  H    0.003893  -0.004171   0.003938   0.000085   0.000000  -0.000001
     6  C    0.354825   0.618414  -0.056646  -0.027148   0.004657  -0.018693
     7  H    0.598412  -0.047575   0.006578  -0.014991  -0.000035   0.004744
     8  C   -0.047575   4.928076   0.366013   0.385115  -0.042011  -0.027148
     9  H    0.006578   0.366013   0.599198  -0.042011  -0.004105   0.004657
    10  C   -0.014991   0.385115  -0.042011   4.928076   0.366013   0.618414
    11  H   -0.000035  -0.042011  -0.004105   0.366013   0.599198  -0.056646
    12  C    0.004744  -0.027148   0.004657   0.618414  -0.056646   4.890470
    13  H    0.004326  -0.014991  -0.000035  -0.047575   0.006578   0.354825
    14  C    0.000181   0.004012  -0.000091  -0.019562  -0.008512   0.418969
    15  H    0.000001   0.000085   0.000000  -0.004171   0.003938  -0.045492
    16  C   -0.000003  -0.000216   0.000001   0.002340   0.000401  -0.025723
    17  H    0.000000   0.000002   0.000000  -0.000174  -0.000007   0.003887
    18  H    0.000000   0.000002   0.000000   0.000417   0.000014  -0.012116
             13         14         15         16         17         18
     1  C   -0.000003   0.000000   0.000000   0.000000   0.000000   0.000000
     2  H    0.000000   0.000000   0.000000   0.000000   0.000000   0.000000
     3  H    0.000000   0.000000   0.000000   0.000000   0.000000   0.000000
     4  C    0.000181  -0.000008   0.000000   0.000000   0.000000   0.000000
     5  H    0.000001   0.000000   0.000000   0.000000   0.000000   0.000000
     6  C    0.004744   0.000352  -0.000001   0.000020   0.000000  -0.000004
     7  H    0.004326   0.000181   0.000001  -0.000003   0.000000   0.000000
     8  C   -0.014991   0.004012   0.000085  -0.000216   0.000002   0.000002
     9  H   -0.000035  -0.000091   0.000000   0.000001   0.000000   0.000000
    10  C   -0.047575  -0.019562  -0.004171   0.002340  -0.000174   0.000417
    11  H    0.006578  -0.008512   0.003938   0.000401  -0.000007   0.000014
    12  C    0.354825   0.418969  -0.045492  -0.025723   0.003887  -0.012116
    13  H    0.598412  -0.043285   0.003893  -0.003972  -0.000004   0.004854
    14  C   -0.043285   4.783500   0.369321   0.627243  -0.023482  -0.035394
    15  H    0.003893   0.369321   0.593448  -0.052855  -0.006573   0.005878
    16  C   -0.003972   0.627243  -0.052855   5.063680   0.365733   0.372029
    17  H   -0.000004  -0.023482  -0.006573   0.365733   0.558276  -0.041055
    18  H    0.004854  -0.035394   0.005878   0.372029  -0.041055   0.562893
 Mulliken atomic charges:
              1
     1  C   -0.348678
     2  H    0.143397
     3  H    0.142483
     4  C   -0.073246
     5  H    0.132529
     6  C   -0.110514
     7  H    0.132050
     8  C   -0.148630
     9  H    0.130608
    10  C   -0.148630
    11  H    0.130608
    12  C   -0.110514
    13  H    0.132050
    14  C   -0.073246
    15  H    0.132529
    16  C   -0.348678
    17  H    0.143397
    18  H    0.142483
 Sum of Mulliken atomic charges =   0.00000
 Mulliken charges with hydrogens summed into heavy atoms:
              1
     1  C   -0.062797
     4  C    0.059282
     6  C    0.021536
     8  C   -0.018022
    10  C   -0.018022
    12  C    0.021536
    14  C    0.059282
    16  C   -0.062797
 Sum of Mulliken charges with hydrogens summed into heavy atoms =   0.00000
 Electronic spatial extent (au):  <R**2>=           1720.6871
 Charge=              0.0000 electrons
 Dipole moment (field-independent basis, Debye):
    X=              0.0000    Y=              0.0000    Z=              0.2444  Tot=              0.2444
 Quadrupole moment (field-independent basis, Debye-Ang):
   XX=            -53.8421   YY=            -44.5023   ZZ=            -43.2639
   XY=              0.0000   XZ=              0.0000   YZ=              0.0000
 Traceless Quadrupole moment (field-independent basis, Debye-Ang):
   XX=             -6.6393   YY=              2.7005   ZZ=              3.9388
   XY=              0.0000   XZ=              0.0000   YZ=              0.0000
 Octapole moment (field-independent basis, Debye-Ang**2):
  XXX=              0.0000  YYY=              0.0000  ZZZ=              2.2544  XYY=              0.0000
  XXY=              0.0000  XXZ=              0.4620  XZZ=              0.0000  YZZ=              0.0000
  YYZ=              5.0166  XYZ=              0.0000
 Hexadecapole moment (field-independent basis, Debye-Ang**3):
 XXXX=            -56.1297 YYYY=          -1837.5085 ZZZZ=           -291.5994 XXXY=              0.0000
 XXXZ=              0.0000 YYYX=              0.0000 YYYZ=              0.0000 ZZZX=              0.0000
 ZZZY=              0.0000 XXYY=           -386.4373 XXZZ=            -66.2310 YYZZ=           -362.6661
 XXYZ=              0.0000 YYXZ=              0.0000 ZZXY=              0.0000
 N-N= 3.004476246790D+02 E-N=-1.319364571762D+03  KE= 3.075710400282D+02
 Symmetry A1   KE= 1.504790685194D+02
 Symmetry A2   KE= 4.397976991356D+00
 Symmetry B1   KE= 4.032782031000D+00
 Symmetry B2   KE= 1.486612124864D+02
 Calling FoFJK, ICntrl=      2127 FMM=F ISym2X=1 I1Cent= 0 IOpClX= 0 NMat=1 NMatS=1 NMatT=0.
 ***** Axes restored to original set *****
 -------------------------------------------------------------------
 Center     Atomic                   Forces (Hartrees/Bohr)
 Number     Number              X              Y              Z
 -------------------------------------------------------------------
      1        6           0.000000000    0.013597524    0.030806290
      2        1           0.000000000   -0.014393677   -0.003833749
      3        1           0.000000000    0.003388913   -0.014016530
      4        6           0.000000000    0.043483600   -0.042696708
      5        1           0.000000000   -0.002494524    0.015098243
      6        6           0.000000000   -0.055311683    0.039954091
      7        1           0.000000000   -0.002032398   -0.014056246
      8        6           0.000000000    0.045455166   -0.033423106
      9        1           0.000000000   -0.010500314    0.022167715
     10        6           0.000000000   -0.045455166   -0.033423106
     11        1           0.000000000    0.010500314    0.022167715
     12        6           0.000000000    0.055311683    0.039954091
     13        1           0.000000000    0.002032398   -0.014056246
     14        6           0.000000000   -0.043483600   -0.042696708
     15        1           0.000000000    0.002494524    0.015098243
     16        6           0.000000000   -0.013597524    0.030806290
     17        1           0.000000000    0.014393677   -0.003833749
     18        1           0.000000000   -0.003388913   -0.014016530
 -------------------------------------------------------------------
 Cartesian Forces:  Max     0.055311683 RMS     0.022895994

 GradGradGradGradGradGradGradGradGradGradGradGradGradGradGradGradGradGrad
 Berny optimization.
 Internal  Forces:  Max     0.043708255 RMS     0.012561112
 Search for a local minimum.
 Step number   1 out of a maximum of   79
 All quantities printed in internal units (Hartrees-Bohrs-Radians)
 Mixed Optimization -- RFO/linear search
 Second derivative matrix not updated -- first step.
 ITU=  0
     Eigenvalues ---    0.00310   0.00310   0.00499   0.01500   0.01500
     Eigenvalues ---    0.01500   0.01500   0.01605   0.01605   0.02683
     Eigenvalues ---    0.02683   0.02683   0.02683   0.02683   0.02683
     Eigenvalues ---    0.16000   0.16000   0.16000   0.16000   0.16000
     Eigenvalues ---    0.16000   0.16000   0.16000   0.16000   0.16000
     Eigenvalues ---    0.22000   0.22000   0.22000   0.22000   0.22000
     Eigenvalues ---    0.22000   0.29014   0.29014   0.30350   0.37600
     Eigenvalues ---    0.37600   0.37600   0.37600   0.37600   0.37600
     Eigenvalues ---    0.37719   0.37719   0.39316   0.39316   0.53947
     Eigenvalues ---    0.53947   0.53947   0.53947
 RFO step:  Lambda=-3.48576335D-02 EMin= 3.09906362D-03
 Linear search not attempted -- first point.
 Maximum step size (   0.300) exceeded in Quadratic search.
    -- Step size scaled by   0.875
 Iteration  1 RMS(Cart)=  0.18568682 RMS(Int)=  0.00622307
 Iteration  2 RMS(Cart)=  0.01058329 RMS(Int)=  0.00001432
 Iteration  3 RMS(Cart)=  0.00003310 RMS(Int)=  0.00000000
 Iteration  4 RMS(Cart)=  0.00000001 RMS(Int)=  0.00000000
 ClnCor:  largest displacement from symmetrization is 1.89D-08 for atom     5.
 Variable       Old X    -DE/DX   Delta X   Delta X   Delta X     New X
                                 (Linear)    (Quad)   (Total)
    R1        2.01475   0.01436   0.00000   0.03048   0.03048   2.04523
    R2        2.01652   0.01389   0.00000   0.02957   0.02957   2.04609
    R3        2.56079  -0.01246   0.00000  -0.01897  -0.01897   2.54182
    R4        2.01652   0.01440   0.00000   0.03065   0.03065   2.04717
    R5        2.89974  -0.04371   0.00000  -0.11762  -0.11762   2.78212
    R6        2.01652   0.01128   0.00000   0.02402   0.02402   2.04053
    R7        2.56079  -0.00263   0.00000  -0.00400  -0.00400   2.55680
    R8        1.99194   0.02448   0.00000   0.05002   0.05002   2.04196
    R9        2.87270  -0.02119   0.00000  -0.05478  -0.05478   2.81792
   R10        1.99194   0.02448   0.00000   0.05002   0.05002   2.04196
   R11        2.56079  -0.00263   0.00000  -0.00400  -0.00400   2.55680
   R12        2.01652   0.01128   0.00000   0.02402   0.02402   2.04053
   R13        2.89974  -0.04371   0.00000  -0.11762  -0.11762   2.78212
   R14        2.01652   0.01440   0.00000   0.03065   0.03065   2.04717
   R15        2.56079  -0.01246   0.00000  -0.01897  -0.01897   2.54182
   R16        2.01475   0.01436   0.00000   0.03048   0.03048   2.04523
   R17        2.01652   0.01389   0.00000   0.02957   0.02957   2.04609
    A1        2.08882  -0.00526   0.00000  -0.02363  -0.02363   2.06520
    A2        2.09939   0.00271   0.00000   0.01218   0.01218   2.11157
    A3        2.09498   0.00255   0.00000   0.01145   0.01145   2.10642
    A4        2.09498  -0.00022   0.00000   0.00476   0.00476   2.09974
    A5        2.09939   0.01089   0.00000   0.03738   0.03738   2.13677
    A6        2.08882  -0.01067   0.00000  -0.04215  -0.04215   2.04668
    A7        2.08882  -0.01239   0.00000  -0.05173  -0.05173   2.03710
    A8        2.09939   0.00739   0.00000   0.02536   0.02536   2.12475
    A9        2.09498   0.00500   0.00000   0.02636   0.02636   2.12134
   A10        2.09888  -0.01319   0.00000  -0.04363  -0.04363   2.05524
   A11        2.10813   0.02945   0.00000   0.10107   0.10107   2.20921
   A12        2.07618  -0.01626   0.00000  -0.05744  -0.05744   2.01874
   A13        2.07618  -0.01626   0.00000  -0.05744  -0.05744   2.01874
   A14        2.10813   0.02945   0.00000   0.10107   0.10107   2.20921
   A15        2.09888  -0.01319   0.00000  -0.04363  -0.04363   2.05524
   A16        2.09498   0.00500   0.00000   0.02636   0.02636   2.12134
   A17        2.09939   0.00739   0.00000   0.02536   0.02536   2.12475
   A18        2.08882  -0.01239   0.00000  -0.05173  -0.05173   2.03710
   A19        2.08882  -0.01067   0.00000  -0.04215  -0.04215   2.04668
   A20        2.09939   0.01089   0.00000   0.03738   0.03738   2.13677
   A21        2.09498  -0.00022   0.00000   0.00476   0.00476   2.09974
   A22        2.09939   0.00271   0.00000   0.01218   0.01218   2.11157
   A23        2.09498   0.00255   0.00000   0.01145   0.01145   2.10642
   A24        2.08882  -0.00526   0.00000  -0.02363  -0.02363   2.06520
    D1        0.00000   0.00000   0.00000   0.00000   0.00000   0.00000
    D2        3.14159   0.00000   0.00000   0.00000   0.00000   3.14159
    D3        3.14159   0.00000   0.00000   0.00000   0.00000   3.14159
    D4        0.00000   0.00000   0.00000   0.00000   0.00000   0.00000
    D5        0.00000   0.00000   0.00000   0.00000   0.00000   0.00000
    D6        3.14159   0.00000   0.00000   0.00000   0.00000   3.14159
    D7        3.14159   0.00000   0.00000   0.00000   0.00000   3.14159
    D8        0.00000   0.00000   0.00000   0.00000   0.00000   0.00000
    D9        0.00000   0.00000   0.00000   0.00000   0.00000   0.00000
   D10        3.14159   0.00000   0.00000   0.00000   0.00000   3.14159
   D11        3.14159   0.00000   0.00000   0.00000   0.00000   3.14159
   D12        0.00000   0.00000   0.00000   0.00000   0.00000   0.00000
   D13        3.14159   0.00000   0.00000   0.00000   0.00000   3.14159
   D14        0.00000   0.00000   0.00000   0.00000   0.00000   0.00000
   D15        0.00000   0.00000   0.00000   0.00000   0.00000   0.00000
   D16        3.14159   0.00000   0.00000   0.00000   0.00000   3.14159
   D17        0.00000   0.00000   0.00000   0.00000   0.00000   0.00000
   D18        3.14159   0.00000   0.00000   0.00000   0.00000   3.14159
   D19        3.14159   0.00000   0.00000   0.00000   0.00000   3.14159
   D20        0.00000   0.00000   0.00000   0.00000   0.00000   0.00000
   D21        0.00000   0.00000   0.00000   0.00000   0.00000   0.00000
   D22        3.14159   0.00000   0.00000   0.00000   0.00000   3.14159
   D23        3.14159   0.00000   0.00000   0.00000   0.00000   3.14159
   D24        0.00000   0.00000   0.00000   0.00000   0.00000   0.00000
   D25        3.14159   0.00000   0.00000   0.00000   0.00000   3.14159
   D26        0.00000   0.00000   0.00000   0.00000   0.00000   0.00000
   D27        0.00000   0.00000   0.00000   0.00000   0.00000   0.00000
   D28        3.14159   0.00000   0.00000   0.00000   0.00000   3.14159
         Item               Value     Threshold  Converged?
 Maximum Force            0.043708     0.000450     NO 
 RMS     Force            0.012561     0.000300     NO 
 Maximum Displacement     0.501702     0.001800     NO 
 RMS     Displacement     0.186126     0.001200     NO 
 Predicted change in Energy=-1.872332D-02
 GradGradGradGradGradGradGradGradGradGradGradGradGradGradGradGradGradGrad

                          Input orientation:                          
 ---------------------------------------------------------------------
 Center     Atomic      Atomic             Coordinates (Angstroms)
 Number     Number       Type             X           Y           Z
 ---------------------------------------------------------------------
      1          6           0        0.000000   -3.833333   -0.998371
      2          1           0        0.000000   -4.909122   -0.879925
      3          1           0        0.000000   -3.426958   -2.001960
      4          6           0        0.000000   -3.018852    0.072072
      5          1           0        0.000000   -3.432142    1.073453
      6          6           0        0.000000   -1.551868   -0.052119
      7          1           0        0.000000   -1.149496   -1.054154
      8          6           0        0.000000   -0.745590    1.034399
      9          1           0        0.000000   -1.213589    2.008352
     10          6           0        0.000000    0.745590    1.034399
     11          1           0        0.000000    1.213589    2.008352
     12          6           0        0.000000    1.551868   -0.052119
     13          1           0        0.000000    1.149496   -1.054154
     14          6           0        0.000000    3.018852    0.072072
     15          1           0        0.000000    3.432142    1.073453
     16          6           0        0.000000    3.833333   -0.998371
     17          1           0        0.000000    4.909122   -0.879925
     18          1           0        0.000000    3.426958   -2.001960
 ---------------------------------------------------------------------
                    Distance matrix (angstroms):
                    1          2          3          4          5
     1  C    0.000000
     2  H    1.082290   0.000000
     3  H    1.082742   1.858971   0.000000
     4  C    1.345076   2.116464   2.113802   0.000000
     5  H    2.110310   2.448909   3.075417   1.083315   0.000000
     6  C    2.469914   3.457806   2.705151   1.472232   2.191425
     7  H    2.684417   3.763661   2.466813   2.182402   3.120446
     8  C    3.696798   4.582536   4.050828   2.468561   2.686836
     9  H    3.987912   4.690321   4.580568   2.647292   2.407491
    10  C    5.009859   5.969958   5.160390   3.885498   4.177915
    11  H    5.874675   6.769766   6.133292   4.654324   4.738866
    12  C    5.467703   6.513805   5.347016   4.572407   5.109527
    13  H    4.983141   6.061122   4.673570   4.317813   5.051546
    14  C    6.935293   7.984928   6.771268   6.037704   6.528253
    15  H    7.555103   8.566935   7.517008   6.528253   6.864284
    16  C    7.666666   8.743257   7.329325   6.935293   7.555103
    17  H    8.743257   9.818244   8.411253   7.984928   8.566935
    18  H    7.329325   8.411253   6.853915   6.771268   7.517008
                    6          7          8          9         10
     6  C    0.000000
     7  H    1.079804   0.000000
     8  C    1.352999   2.127250   0.000000
     9  H    2.088055   3.063176   1.080559   0.000000
    10  C    2.541423   2.820178   1.491180   2.187913   0.000000
    11  H    3.448665   3.868218   2.187913   2.427178   1.080559
    12  C    3.103735   2.881221   2.541423   3.448665   1.352999
    13  H    2.881221   2.298991   2.820178   3.868218   2.127250
    14  C    4.572407   4.317813   3.885498   4.654324   2.468561
    15  H    5.109527   5.051546   4.177915   4.738866   2.686836
    16  C    5.467703   4.983141   5.009859   5.874675   3.696798
    17  H    6.513805   6.061122   5.969958   6.769766   4.582536
    18  H    5.347016   4.673570   5.160390   6.133292   4.050828
                   11         12         13         14         15
    11  H    0.000000
    12  C    2.088055   0.000000
    13  H    3.063176   1.079804   0.000000
    14  C    2.647292   1.472232   2.182402   0.000000
    15  H    2.407491   2.191425   3.120446   1.083315   0.000000
    16  C    3.987912   2.469914   2.684417   1.345076   2.110310
    17  H    4.690321   3.457806   3.763661   2.116464   2.448909
    18  H    4.580568   2.705151   2.466813   2.113802   3.075417
                   16         17         18
    16  C    0.000000
    17  H    1.082290   0.000000
    18  H    1.082742   1.858971   0.000000
 Stoichiometry    C8H10
 Framework group  C2V[SGV(C8H10)]
 Deg. of freedom    17
 Full point group                 C2V     NOp   4
 Largest Abelian subgroup         C2V     NOp   4
 Largest concise Abelian subgroup C2      NOp   2
                         Standard orientation:                         
 ---------------------------------------------------------------------
 Center     Atomic      Atomic             Coordinates (Angstroms)
 Number     Number       Type             X           Y           Z
 ---------------------------------------------------------------------
      1          6           0        0.000000    3.833333   -0.980497
      2          1           0        0.000000    4.909122   -0.862051
      3          1           0        0.000000    3.426958   -1.984086
      4          6           0        0.000000    3.018852    0.089946
      5          1           0        0.000000    3.432142    1.091327
      6          6           0        0.000000    1.551868   -0.034245
      7          1           0        0.000000    1.149496   -1.036280
      8          6           0        0.000000    0.745590    1.052273
      9          1           0        0.000000    1.213589    2.026226
     10          6           0        0.000000   -0.745590    1.052273
     11          1           0        0.000000   -1.213589    2.026226
     12          6           0        0.000000   -1.551868   -0.034245
     13          1           0        0.000000   -1.149496   -1.036280
     14          6           0        0.000000   -3.018852    0.089946
     15          1           0        0.000000   -3.432142    1.091327
     16          6           0        0.000000   -3.833333   -0.980497
     17          1           0        0.000000   -4.909122   -0.862051
     18          1           0        0.000000   -3.426958   -1.984086
 ---------------------------------------------------------------------
 Rotational constants (GHZ):      7.0073173      0.6791322      0.6191278
 Standard basis: 6-31G(d) (6D, 7F)
 There are    54 symmetry adapted basis functions of A1  symmetry.
 There are    16 symmetry adapted basis functions of A2  symmetry.
 There are    16 symmetry adapted basis functions of B1  symmetry.
 There are    54 symmetry adapted basis functions of B2  symmetry.
 Integral buffers will be    131072 words long.
 Raffenetti 2 integral format.
 Two-electron integral symmetry is turned on.
   140 basis functions,   264 primitive gaussians,   140 cartesian basis functions
    29 alpha electrons       29 beta electrons
       nuclear repulsion energy       300.2076441312 Hartrees.
 NAtoms=   18 NActive=   18 NUniq=    9 SFac= 4.00D+00 NAtFMM=   60 NAOKFM=F Big=F
 One-electron integrals computed using PRISM.
 NBasis=   140 RedAO= T  NBF=    54    16    16    54
 NBsUse=   140 1.00D-06 NBFU=    54    16    16    54
 Initial guess read from the read-write file.
 B after Tr=     0.000000    0.000000    0.000000
         Rot=    1.000000    0.000000    0.000000    0.000000 Ang=   0.00 deg.
 Initial guess orbital symmetries:
       Occupied  (B2) (A1) (A1) (B2) (A1) (B2) (B2) (A1) (A1) (B2)
                 (A1) (B2) (A1) (A1) (B2) (B2) (A1) (A1) (B2) (A1)
                 (B2) (A1) (B2) (B2) (A1) (B1) (A2) (B1) (A2)
       Virtual   (B1) (A2) (B1) (A1) (A2) (A1) (B2) (A1) (B2) (A1)
                 (B2) (A1) (B2) (B2) (A1) (B2) (A1) (B2) (A1) (B2)
                 (A1) (B2) (A1) (B1) (B2) (A2) (B1) (A1) (B2) (A2)
                 (A1) (B1) (B2) (A1) (B1) (A1) (B2) (A2) (A2) (A1)
                 (B2) (A1) (B2) (B2) (A1) (B2) (A1) (B2) (A1) (A1)
                 (B2) (B2) (A1) (B2) (A1) (B2) (A1) (B2) (A1) (B2)
                 (B1) (A1) (B1) (A2) (B2) (A2) (B1) (B2) (A2) (B1)
                 (A2) (B1) (A1) (A1) (B2) (A1) (B2) (A2) (A1) (B2)
                 (A1) (B1) (A1) (B2) (B2) (A2) (A1) (B2) (B1) (A1)
                 (B2) (B1) (A2) (A2) (A1) (B2) (B2) (A1) (A1) (B2)
                 (A1) (B2) (B2) (A1) (B2) (A1) (B2) (A1) (B2) (A1)
                 (B2)
 Harris functional with IExCor=  402 diagonalized for initial guess.
 ExpMin= 1.61D-01 ExpMax= 3.05D+03 ExpMxC= 4.57D+02 IAcc=1 IRadAn=         1 AccDes= 0.00D+00
 HarFok:  IExCor=  402 AccDes= 0.00D+00 IRadAn=         1 IDoV= 1
 ScaDFX=  1.000000  1.000000  1.000000  1.000000
 FoFCou: FMM=F IPFlag=           0 FMFlag=      100000 FMFlg1=           0
         NFxFlg=           0 DoJE=T BraDBF=F KetDBF=T FulRan=T
         Omega=  0.000000  0.000000  1.000000  0.000000  0.000000 ICntrl=     500 IOpCl=  0
         NMat0=    1 NMatS0=    1 NMatT0=    0 NMatD0=    1 NMtDS0=    0 NMtDT0=    0
         I1Cent=           4 NGrid=           0.
 Petite list used in FoFCou.
 Requested convergence on RMS density matrix=1.00D-08 within 128 cycles.
 Requested convergence on MAX density matrix=1.00D-06.
 Requested convergence on             energy=1.00D-06.
 No special actions if energy rises.
 Integral accuracy reduced to 1.0D-05 until final iterations.
 Initial convergence to 1.0D-05 achieved.  Increase integral accuracy.
 SCF Done:  E(RB3LYP) =  -310.797632184     A.U. after   13 cycles
             Convg  =    0.9892D-08             -V/T =  2.0103
 Calling FoFJK, ICntrl=      2127 FMM=F ISym2X=1 I1Cent= 0 IOpClX= 0 NMat=1 NMatS=1 NMatT=0.
 ***** Axes restored to original set *****
 -------------------------------------------------------------------
 Center     Atomic                   Forces (Hartrees/Bohr)
 Number     Number              X              Y              Z
 -------------------------------------------------------------------
      1        6           0.000000000    0.001346538    0.008484992
      2        1           0.000000000   -0.002590592   -0.002182921
      3        1           0.000000000   -0.000975272   -0.003556422
      4        6           0.000000000    0.015013004   -0.013973314
      5        1           0.000000000   -0.000896458    0.003863984
      6        6           0.000000000   -0.017515874    0.015311077
      7        1           0.000000000    0.002490075   -0.005366306
      8        6           0.000000000    0.025928236   -0.008155411
      9        1           0.000000000   -0.001749249    0.005574321
     10        6           0.000000000   -0.025928236   -0.008155411
     11        1           0.000000000    0.001749249    0.005574321
     12        6           0.000000000    0.017515874    0.015311077
     13        1           0.000000000   -0.002490075   -0.005366306
     14        6           0.000000000   -0.015013004   -0.013973314
     15        1           0.000000000    0.000896458    0.003863984
     16        6           0.000000000   -0.001346538    0.008484992
     17        1           0.000000000    0.002590592   -0.002182921
     18        1           0.000000000    0.000975272   -0.003556422
 -------------------------------------------------------------------
 Cartesian Forces:  Max     0.025928236 RMS     0.008354221

 GradGradGradGradGradGradGradGradGradGradGradGradGradGradGradGradGradGrad
 Berny optimization.
 Using GEDIIS/GDIIS optimizer.
 Internal  Forces:  Max     0.021050408 RMS     0.004162031
 Search for a local minimum.
 Step number   2 out of a maximum of   79
 All quantities printed in internal units (Hartrees-Bohrs-Radians)
 Mixed Optimization -- RFO/linear search
 Update second derivatives using D2CorX and points    1    2
 DE= -1.86D-02 DEPred=-1.87D-02 R= 9.94D-01
 SS=  1.41D+00  RLast= 3.00D-01 DXNew= 5.0454D-01 9.0000D-01
 Trust test= 9.94D-01 RLast= 3.00D-01 DXMaxT set to 5.05D-01
 ITU=  1  0
 Use linear search instead of GDIIS.
 DSYEVD returned Info=          97 IAlg= 4 N=    48 NDim=    48 NE2=      666573 trying DSYEV.
     Eigenvalues ---    0.00310   0.00310   0.00499   0.01531   0.01531
     Eigenvalues ---    0.01552   0.01552   0.01611   0.01611   0.02683
     Eigenvalues ---    0.02683   0.02683   0.02683   0.02683   0.02683
     Eigenvalues ---    0.15605   0.16000   0.16000   0.16000   0.16000
     Eigenvalues ---    0.16000   0.16000   0.16000   0.16000   0.16446
     Eigenvalues ---    0.19648   0.22000   0.22000   0.22000   0.22000
     Eigenvalues ---    0.24818   0.25668   0.29014   0.32392   0.37135
     Eigenvalues ---    0.37600   0.37600   0.37600   0.37600   0.37656
     Eigenvalues ---    0.37719   0.38281   0.39316   0.39965   0.53947
     Eigenvalues ---    0.53947   0.53947   0.54379
 RFO step:  Lambda=-3.46657577D-03 EMin= 3.09906362D-03
 Quartic linear search produced a step of  0.36327.
 Iteration  1 RMS(Cart)=  0.02841705 RMS(Int)=  0.00026903
 Iteration  2 RMS(Cart)=  0.00059598 RMS(Int)=  0.00000006
 Iteration  3 RMS(Cart)=  0.00000013 RMS(Int)=  0.00000000
 ClnCor:  largest displacement from symmetrization is 5.99D-10 for atom     1.
 Variable       Old X    -DE/DX   Delta X   Delta X   Delta X     New X
                                 (Linear)    (Quad)   (Total)
    R1        2.04523   0.00234   0.01107  -0.00103   0.01005   2.05528
    R2        2.04609   0.00293   0.01074   0.00141   0.01215   2.05824
    R3        2.54182  -0.00084  -0.00689   0.00369  -0.00320   2.53863
    R4        2.04717   0.00391   0.01113   0.00461   0.01574   2.06291
    R5        2.78212  -0.01248  -0.04273  -0.02142  -0.06415   2.71796
    R6        2.04053   0.00591   0.00872   0.01381   0.02253   2.06307
    R7        2.55680  -0.00021  -0.00145   0.00070  -0.00075   2.55605
    R8        2.04196   0.00578   0.01817   0.00447   0.02264   2.06460
    R9        2.81792  -0.02105  -0.01990  -0.07645  -0.09635   2.72157
   R10        2.04196   0.00578   0.01817   0.00447   0.02264   2.06460
   R11        2.55680  -0.00021  -0.00145   0.00070  -0.00075   2.55605
   R12        2.04053   0.00591   0.00872   0.01381   0.02253   2.06307
   R13        2.78212  -0.01248  -0.04273  -0.02142  -0.06415   2.71796
   R14        2.04717   0.00391   0.01113   0.00461   0.01574   2.06291
   R15        2.54182  -0.00084  -0.00689   0.00369  -0.00320   2.53863
   R16        2.04523   0.00234   0.01107  -0.00103   0.01005   2.05528
   R17        2.04609   0.00293   0.01074   0.00141   0.01215   2.05824
    A1        2.06520  -0.00320  -0.00858  -0.01917  -0.02775   2.03744
    A2        2.11157   0.00182   0.00442   0.01129   0.01571   2.12728
    A3        2.10642   0.00138   0.00416   0.00788   0.01204   2.11846
    A4        2.09974  -0.00232   0.00173  -0.01425  -0.01252   2.08722
    A5        2.13677   0.00596   0.01358   0.02463   0.03821   2.17498
    A6        2.04668  -0.00364  -0.01531  -0.01039  -0.02570   2.02098
    A7        2.03710  -0.00246  -0.01879   0.00204  -0.01675   2.02035
    A8        2.12475   0.00556   0.00921   0.02595   0.03517   2.15992
    A9        2.12134  -0.00310   0.00958  -0.02800  -0.01842   2.10292
   A10        2.05524   0.00000  -0.01585   0.01555  -0.00030   2.05494
   A11        2.20921   0.00170   0.03672  -0.02122   0.01549   2.22470
   A12        2.01874  -0.00171  -0.02087   0.00567  -0.01519   2.00354
   A13        2.01874  -0.00171  -0.02087   0.00567  -0.01519   2.00354
   A14        2.20921   0.00170   0.03672  -0.02122   0.01549   2.22470
   A15        2.05524   0.00000  -0.01585   0.01555  -0.00030   2.05494
   A16        2.12134  -0.00310   0.00958  -0.02800  -0.01842   2.10292
   A17        2.12475   0.00556   0.00921   0.02595   0.03517   2.15992
   A18        2.03710  -0.00246  -0.01879   0.00204  -0.01675   2.02035
   A19        2.04668  -0.00364  -0.01531  -0.01039  -0.02570   2.02098
   A20        2.13677   0.00596   0.01358   0.02463   0.03821   2.17498
   A21        2.09974  -0.00232   0.00173  -0.01425  -0.01252   2.08722
   A22        2.11157   0.00182   0.00442   0.01129   0.01571   2.12728
   A23        2.10642   0.00138   0.00416   0.00788   0.01204   2.11846
   A24        2.06520  -0.00320  -0.00858  -0.01917  -0.02775   2.03744
    D1        0.00000   0.00000   0.00000   0.00000   0.00000   0.00000
    D2        3.14159   0.00000   0.00000   0.00000   0.00000   3.14159
    D3        3.14159   0.00000   0.00000   0.00000   0.00000   3.14159
    D4        0.00000   0.00000   0.00000   0.00000   0.00000   0.00000
    D5        0.00000   0.00000   0.00000   0.00000   0.00000   0.00000
    D6        3.14159   0.00000   0.00000   0.00000   0.00000   3.14159
    D7        3.14159   0.00000   0.00000   0.00000   0.00000   3.14159
    D8        0.00000   0.00000   0.00000   0.00000   0.00000   0.00000
    D9        0.00000   0.00000   0.00000   0.00000   0.00000   0.00000
   D10        3.14159   0.00000   0.00000   0.00000   0.00000   3.14159
   D11        3.14159   0.00000   0.00000   0.00000   0.00000   3.14159
   D12        0.00000   0.00000   0.00000   0.00000   0.00000   0.00000
   D13        3.14159   0.00000   0.00000   0.00000   0.00000   3.14159
   D14        0.00000   0.00000   0.00000   0.00000   0.00000   0.00000
   D15        0.00000   0.00000   0.00000   0.00000   0.00000   0.00000
   D16        3.14159   0.00000   0.00000   0.00000   0.00000   3.14159
   D17        0.00000   0.00000   0.00000   0.00000   0.00000   0.00000
   D18        3.14159   0.00000   0.00000   0.00000   0.00000   3.14159
   D19        3.14159   0.00000   0.00000   0.00000   0.00000   3.14159
   D20        0.00000   0.00000   0.00000   0.00000   0.00000   0.00000
   D21        0.00000   0.00000   0.00000   0.00000   0.00000   0.00000
   D22        3.14159   0.00000   0.00000   0.00000   0.00000   3.14159
   D23        3.14159   0.00000   0.00000   0.00000   0.00000   3.14159
   D24        0.00000   0.00000   0.00000   0.00000   0.00000   0.00000
   D25        3.14159   0.00000   0.00000   0.00000   0.00000   3.14159
   D26        0.00000   0.00000   0.00000   0.00000   0.00000   0.00000
   D27        0.00000   0.00000   0.00000   0.00000   0.00000   0.00000
   D28        3.14159   0.00000   0.00000   0.00000   0.00000   3.14159
         Item               Value     Threshold  Converged?
 Maximum Force            0.021050     0.000450     NO 
 RMS     Force            0.004162     0.000300     NO 
 Maximum Displacement     0.082434     0.001800     NO 
 RMS     Displacement     0.028585     0.001200     NO 
 Predicted change in Energy=-2.844019D-03
 GradGradGradGradGradGradGradGradGradGradGradGradGradGradGradGradGradGrad

                          Input orientation:                          
 ---------------------------------------------------------------------
 Center     Atomic      Atomic             Coordinates (Angstroms)
 Number     Number       Type             X           Y           Z
 ---------------------------------------------------------------------
      1          6           0        0.000000   -3.811273   -0.998664
      2          1           0        0.000000   -4.892005   -0.876582
      3          1           0        0.000000   -3.433541   -2.020240
      4          6           0        0.000000   -2.978137    0.055169
      5          1           0        0.000000   -3.388520    1.066741
      6          6           0        0.000000   -1.542869   -0.037939
      7          1           0        0.000000   -1.133090   -1.049845
      8          6           0        0.000000   -0.720097    1.035641
      9          1           0        0.000000   -1.178270    2.027467
     10          6           0        0.000000    0.720097    1.035641
     11          1           0        0.000000    1.178270    2.027467
     12          6           0        0.000000    1.542869   -0.037939
     13          1           0        0.000000    1.133090   -1.049845
     14          6           0        0.000000    2.978137    0.055169
     15          1           0        0.000000    3.388520    1.066741
     16          6           0        0.000000    3.811273   -0.998664
     17          1           0        0.000000    4.892005   -0.876582
     18          1           0        0.000000    3.433541   -2.020240
 ---------------------------------------------------------------------
                    Distance matrix (angstroms):
                    1          2          3          4          5
     1  C    0.000000
     2  H    1.087606   0.000000
     3  H    1.089174   1.853395   0.000000
     4  C    1.343383   2.128627   2.124786   0.000000
     5  H    2.108226   2.457025   3.087310   1.091646   0.000000
     6  C    2.463462   3.452540   2.739372   1.438285   2.150987
     7  H    2.678672   3.762906   2.496746   2.150640   3.093040
     8  C    3.700509   4.589272   4.086709   2.461721   2.668604
     9  H    4.011255   4.714374   4.633592   2.670108   2.410020
    10  C    4.967063   5.928937   5.156658   3.825999   4.108735
    11  H    5.835495   6.729171   6.136182   4.600618   4.666751
    12  C    5.439653   6.489294   5.356695   4.521965   5.053604
    13  H    4.944628   6.027586   4.668596   4.257141   4.992483
    14  C    6.870710   7.925106   6.739209   5.956275   6.446518
    15  H    7.490188   8.505504   7.487988   6.446518   6.777040
    16  C    7.622546   8.704134   7.316484   6.870710   7.490188
    17  H    8.704134   9.784011   8.403730   7.925106   8.505504
    18  H    7.316484   8.403730   6.867082   6.739209   7.487988
                    6          7          8          9         10
     6  C    0.000000
     7  H    1.091729   0.000000
     8  C    1.352601   2.125986   0.000000
     9  H    2.097340   3.077643   1.092538   0.000000
    10  C    2.504714   2.789902   1.440195   2.141849   0.000000
    11  H    3.416212   3.848666   2.141849   2.356541   1.092538
    12  C    3.085739   2.860893   2.504714   3.416212   1.352601
    13  H    2.860893   2.266180   2.789902   3.848666   2.125986
    14  C    4.521965   4.257141   3.825999   4.600618   2.461721
    15  H    5.053604   4.992483   4.108735   4.666751   2.668604
    16  C    5.439653   4.944628   4.967063   5.835495   3.700509
    17  H    6.489294   6.027586   5.928937   6.729171   4.589272
    18  H    5.356695   4.668596   5.156658   6.136182   4.086709
                   11         12         13         14         15
    11  H    0.000000
    12  C    2.097340   0.000000
    13  H    3.077643   1.091729   0.000000
    14  C    2.670108   1.438285   2.150640   0.000000
    15  H    2.410020   2.150987   3.093040   1.091646   0.000000
    16  C    4.011255   2.463462   2.678672   1.343383   2.108226
    17  H    4.714374   3.452540   3.762906   2.128627   2.457025
    18  H    4.633592   2.739372   2.496746   2.124786   3.087310
                   16         17         18
    16  C    0.000000
    17  H    1.087606   0.000000
    18  H    1.089174   1.853395   0.000000
 Stoichiometry    C8H10
 Framework group  C2V[SGV(C8H10)]
 Deg. of freedom    17
 Full point group                 C2V     NOp   4
 Largest Abelian subgroup         C2V     NOp   4
 Largest concise Abelian subgroup C2      NOp   2
                         Standard orientation:                         
 ---------------------------------------------------------------------
 Center     Atomic      Atomic             Coordinates (Angstroms)
 Number     Number       Type             X           Y           Z
 ---------------------------------------------------------------------
      1          6           0        0.000000    3.811273   -0.980484
      2          1           0        0.000000    4.892005   -0.858402
      3          1           0        0.000000    3.433541   -2.002061
      4          6           0        0.000000    2.978137    0.073349
      5          1           0        0.000000    3.388520    1.084921
      6          6           0        0.000000    1.542869   -0.019759
      7          1           0        0.000000    1.133090   -1.031665
      8          6           0        0.000000    0.720097    1.053821
      9          1           0        0.000000    1.178270    2.045647
     10          6           0        0.000000   -0.720097    1.053821
     11          1           0        0.000000   -1.178270    2.045647
     12          6           0        0.000000   -1.542869   -0.019759
     13          1           0        0.000000   -1.133090   -1.031665
     14          6           0        0.000000   -2.978137    0.073349
     15          1           0        0.000000   -3.388520    1.084921
     16          6           0        0.000000   -3.811273   -0.980484
     17          1           0        0.000000   -4.892005   -0.858402
     18          1           0        0.000000   -3.433541   -2.002061
 ---------------------------------------------------------------------
 Rotational constants (GHZ):      6.9842881      0.6907963      0.6286211
 Standard basis: 6-31G(d) (6D, 7F)
 There are    54 symmetry adapted basis functions of A1  symmetry.
 There are    16 symmetry adapted basis functions of A2  symmetry.
 There are    16 symmetry adapted basis functions of B1  symmetry.
 There are    54 symmetry adapted basis functions of B2  symmetry.
 Integral buffers will be    131072 words long.
 Raffenetti 2 integral format.
 Two-electron integral symmetry is turned on.
   140 basis functions,   264 primitive gaussians,   140 cartesian basis functions
    29 alpha electrons       29 beta electrons
       nuclear repulsion energy       302.1386388392 Hartrees.
 NAtoms=   18 NActive=   18 NUniq=    9 SFac= 4.00D+00 NAtFMM=   60 NAOKFM=F Big=F
 One-electron integrals computed using PRISM.
 NBasis=   140 RedAO= T  NBF=    54    16    16    54
 NBsUse=   140 1.00D-06 NBFU=    54    16    16    54
 Initial guess read from the read-write file.
 B after Tr=     0.000000    0.000000    0.000000
         Rot=    1.000000    0.000000    0.000000    0.000000 Ang=   0.00 deg.
 Initial guess orbital symmetries:
       Occupied  (A1) (B2) (A1) (B2) (A1) (B2) (B2) (A1) (A1) (B2)
                 (A1) (B2) (A1) (A1) (B2) (B2) (A1) (A1) (B2) (B2)
                 (A1) (A1) (B2) (B2) (A1) (B1) (A2) (B1) (A2)
       Virtual   (B1) (A2) (B1) (A1) (A2) (A1) (B2) (B2) (A1) (A1)
                 (B2) (A1) (B2) (B2) (B2) (A1) (A1) (B2) (A1) (B2)
                 (B2) (A1) (A1) (B1) (A2) (B2) (B1) (A1) (A2) (B2)
                 (A1) (B2) (B1) (A1) (B1) (A2) (A1) (B2) (A2) (A1)
                 (B2) (B2) (A1) (A1) (B2) (B2) (A1) (B2) (A1) (A1)
                 (B2) (B2) (A1) (B2) (B2) (A1) (B2) (A1) (A1) (B1)
                 (B2) (A1) (A2) (B1) (B2) (A2) (B1) (B2) (A2) (B1)
                 (A2) (B1) (A1) (A1) (B2) (A1) (B2) (B2) (A2) (A1)
                 (A1) (B1) (A1) (B2) (B2) (A2) (A1) (B2) (B1) (B2)
                 (A1) (B1) (A2) (A1) (A2) (B2) (B2) (A1) (A1) (B2)
                 (A1) (B2) (B2) (A1) (B2) (A1) (B2) (A1) (B2) (A1)
                 (B2)
 Harris functional with IExCor=  402 diagonalized for initial guess.
 ExpMin= 1.61D-01 ExpMax= 3.05D+03 ExpMxC= 4.57D+02 IAcc=1 IRadAn=         1 AccDes= 0.00D+00
 HarFok:  IExCor=  402 AccDes= 0.00D+00 IRadAn=         1 IDoV= 1
 ScaDFX=  1.000000  1.000000  1.000000  1.000000
 FoFCou: FMM=F IPFlag=           0 FMFlag=      100000 FMFlg1=           0
         NFxFlg=           0 DoJE=T BraDBF=F KetDBF=T FulRan=T
         Omega=  0.000000  0.000000  1.000000  0.000000  0.000000 ICntrl=     500 IOpCl=  0
         NMat0=    1 NMatS0=    1 NMatT0=    0 NMatD0=    1 NMtDS0=    0 NMtDT0=    0
         I1Cent=           4 NGrid=           0.
 Petite list used in FoFCou.
 Requested convergence on RMS density matrix=1.00D-08 within 128 cycles.
 Requested convergence on MAX density matrix=1.00D-06.
 Requested convergence on             energy=1.00D-06.
 No special actions if energy rises.
 Integral accuracy reduced to 1.0D-05 until final iterations.
 Initial convergence to 1.0D-05 achieved.  Increase integral accuracy.
 SCF Done:  E(RB3LYP) =  -310.799780890     A.U. after   12 cycles
             Convg  =    0.6463D-08             -V/T =  2.0100
 Calling FoFJK, ICntrl=      2127 FMM=F ISym2X=1 I1Cent= 0 IOpClX= 0 NMat=1 NMatS=1 NMatT=0.
 ***** Axes restored to original set *****
 -------------------------------------------------------------------
 Center     Atomic                   Forces (Hartrees/Bohr)
 Number     Number              X              Y              Z
 -------------------------------------------------------------------
      1        6           0.000000000   -0.002104932   -0.001511811
      2        1           0.000000000    0.001453464   -0.000182536
      3        1           0.000000000   -0.000518826    0.000819651
      4        6           0.000000000   -0.004659985    0.003275784
      5        1           0.000000000   -0.001057646   -0.000923725
      6        6           0.000000000    0.001872037   -0.004883289
      7        1           0.000000000    0.000948140    0.001558983
      8        6           0.000000000   -0.004298337    0.003871977
      9        1           0.000000000   -0.000800987   -0.002025033
     10        6           0.000000000    0.004298337    0.003871977
     11        1           0.000000000    0.000800987   -0.002025033
     12        6           0.000000000   -0.001872037   -0.004883289
     13        1           0.000000000   -0.000948140    0.001558983
     14        6           0.000000000    0.004659985    0.003275784
     15        1           0.000000000    0.001057646   -0.000923725
     16        6           0.000000000    0.002104932   -0.001511811
     17        1           0.000000000   -0.001453464   -0.000182536
     18        1           0.000000000    0.000518826    0.000819651
 -------------------------------------------------------------------
 Cartesian Forces:  Max     0.004883289 RMS     0.002046786

 GradGradGradGradGradGradGradGradGradGradGradGradGradGradGradGradGradGrad
 Berny optimization.
 Using GEDIIS/GDIIS optimizer.
 Internal  Forces:  Max     0.009167073 RMS     0.001952567
 Search for a local minimum.
 Step number   3 out of a maximum of   79
 All quantities printed in internal units (Hartrees-Bohrs-Radians)
 Mixed Optimization -- RFO/linear search
 Update second derivatives using D2CorX and points    1    2    3
 DE= -2.15D-03 DEPred=-2.84D-03 R= 7.56D-01
 SS=  1.41D+00  RLast= 1.79D-01 DXNew= 8.4853D-01 5.3752D-01
 Trust test= 7.56D-01 RLast= 1.79D-01 DXMaxT set to 5.38D-01
 ITU=  1  1  0
 Use linear search instead of GDIIS.
     Eigenvalues ---    0.00310   0.00310   0.00499   0.01537   0.01537
     Eigenvalues ---    0.01549   0.01549   0.01619   0.01619   0.02683
     Eigenvalues ---    0.02683   0.02683   0.02683   0.02683   0.02683
     Eigenvalues ---    0.14932   0.16000   0.16000   0.16000   0.16000
     Eigenvalues ---    0.16000   0.16000   0.16000   0.16125   0.16496
     Eigenvalues ---    0.19329   0.22000   0.22000   0.22000   0.22002
     Eigenvalues ---    0.24372   0.29014   0.31496   0.33900   0.36845
     Eigenvalues ---    0.37600   0.37600   0.37600   0.37614   0.37719
     Eigenvalues ---    0.37725   0.38243   0.39316   0.39576   0.53947
     Eigenvalues ---    0.53947   0.54089   0.55319
 RFO step:  Lambda=-2.78093209D-04 EMin= 3.09906362D-03
 Quartic linear search produced a step of -0.23172.
 Iteration  1 RMS(Cart)=  0.02220252 RMS(Int)=  0.00001669
 Iteration  2 RMS(Cart)=  0.00004136 RMS(Int)=  0.00000000
 Iteration  3 RMS(Cart)=  0.00000000 RMS(Int)=  0.00000000
 ClnCor:  largest displacement from symmetrization is 6.95D-10 for atom    16.
 Variable       Old X    -DE/DX   Delta X   Delta X   Delta X     New X
                                 (Linear)    (Quad)   (Total)
    R1        2.05528  -0.00146  -0.00233  -0.00084  -0.00317   2.05211
    R2        2.05824  -0.00095  -0.00282   0.00065  -0.00217   2.05607
    R3        2.53863   0.00141   0.00074   0.00134   0.00209   2.54071
    R4        2.06291  -0.00046  -0.00365   0.00241  -0.00124   2.06167
    R5        2.71796   0.00697   0.01486   0.00452   0.01939   2.73735
    R6        2.06307  -0.00109  -0.00522   0.00256  -0.00266   2.06041
    R7        2.55605   0.00394   0.00017   0.00544   0.00561   2.56166
    R8        2.06460  -0.00150  -0.00525   0.00186  -0.00338   2.06121
    R9        2.72157   0.00917   0.02233   0.00241   0.02474   2.74631
   R10        2.06460  -0.00150  -0.00525   0.00186  -0.00338   2.06121
   R11        2.55605   0.00394   0.00017   0.00544   0.00561   2.56166
   R12        2.06307  -0.00109  -0.00522   0.00256  -0.00266   2.06041
   R13        2.71796   0.00697   0.01486   0.00452   0.01939   2.73735
   R14        2.06291  -0.00046  -0.00365   0.00241  -0.00124   2.06167
   R15        2.53863   0.00141   0.00074   0.00134   0.00209   2.54071
   R16        2.05528  -0.00146  -0.00233  -0.00084  -0.00317   2.05211
   R17        2.05824  -0.00095  -0.00282   0.00065  -0.00217   2.05607
    A1        2.03744  -0.00015   0.00643  -0.00705  -0.00062   2.03682
    A2        2.12728  -0.00011  -0.00364   0.00304  -0.00060   2.12668
    A3        2.11846   0.00027  -0.00279   0.00402   0.00123   2.11969
    A4        2.08722  -0.00136   0.00290  -0.00918  -0.00628   2.08095
    A5        2.17498  -0.00002  -0.00886   0.00835  -0.00051   2.17447
    A6        2.02098   0.00138   0.00595   0.00083   0.00679   2.02776
    A7        2.02035   0.00147   0.00388   0.00331   0.00719   2.02755
    A8        2.15992   0.00008  -0.00815   0.00803  -0.00012   2.15980
    A9        2.10292  -0.00155   0.00427  -0.01134  -0.00707   2.09584
   A10        2.05494  -0.00233   0.00007  -0.01029  -0.01022   2.04472
   A11        2.22470   0.00142  -0.00359   0.00842   0.00483   2.22953
   A12        2.00354   0.00092   0.00352   0.00186   0.00538   2.00893
   A13        2.00354   0.00092   0.00352   0.00186   0.00538   2.00893
   A14        2.22470   0.00142  -0.00359   0.00842   0.00483   2.22953
   A15        2.05494  -0.00233   0.00007  -0.01029  -0.01022   2.04472
   A16        2.10292  -0.00155   0.00427  -0.01134  -0.00707   2.09584
   A17        2.15992   0.00008  -0.00815   0.00803  -0.00012   2.15980
   A18        2.02035   0.00147   0.00388   0.00331   0.00719   2.02755
   A19        2.02098   0.00138   0.00595   0.00083   0.00679   2.02776
   A20        2.17498  -0.00002  -0.00886   0.00835  -0.00051   2.17447
   A21        2.08722  -0.00136   0.00290  -0.00918  -0.00628   2.08095
   A22        2.12728  -0.00011  -0.00364   0.00304  -0.00060   2.12668
   A23        2.11846   0.00027  -0.00279   0.00402   0.00123   2.11969
   A24        2.03744  -0.00015   0.00643  -0.00705  -0.00062   2.03682
    D1        0.00000   0.00000   0.00000   0.00000   0.00000   0.00000
    D2        3.14159   0.00000   0.00000   0.00000   0.00000   3.14159
    D3        3.14159   0.00000   0.00000   0.00000   0.00000   3.14159
    D4        0.00000   0.00000   0.00000   0.00000   0.00000   0.00000
    D5        0.00000   0.00000   0.00000   0.00000   0.00000   0.00000
    D6        3.14159   0.00000   0.00000   0.00000   0.00000   3.14159
    D7        3.14159   0.00000   0.00000   0.00000   0.00000   3.14159
    D8        0.00000   0.00000   0.00000   0.00000   0.00000   0.00000
    D9        0.00000   0.00000   0.00000   0.00000   0.00000   0.00000
   D10        3.14159   0.00000   0.00000   0.00000   0.00000   3.14159
   D11        3.14159   0.00000   0.00000   0.00000   0.00000   3.14159
   D12        0.00000   0.00000   0.00000   0.00000   0.00000   0.00000
   D13        3.14159   0.00000   0.00000   0.00000   0.00000   3.14159
   D14        0.00000   0.00000   0.00000   0.00000   0.00000   0.00000
   D15        0.00000   0.00000   0.00000   0.00000   0.00000   0.00000
   D16        3.14159   0.00000   0.00000   0.00000   0.00000   3.14159
   D17        0.00000   0.00000   0.00000   0.00000   0.00000   0.00000
   D18        3.14159   0.00000   0.00000   0.00000   0.00000   3.14159
   D19        3.14159   0.00000   0.00000   0.00000   0.00000   3.14159
   D20        0.00000   0.00000   0.00000   0.00000   0.00000   0.00000
   D21        0.00000   0.00000   0.00000   0.00000   0.00000   0.00000
   D22        3.14159   0.00000   0.00000   0.00000   0.00000   3.14159
   D23        3.14159   0.00000   0.00000   0.00000   0.00000   3.14159
   D24        0.00000   0.00000   0.00000   0.00000   0.00000   0.00000
   D25        3.14159   0.00000   0.00000   0.00000   0.00000   3.14159
   D26        0.00000   0.00000   0.00000   0.00000   0.00000   0.00000
   D27        0.00000   0.00000   0.00000   0.00000   0.00000   0.00000
   D28        3.14159   0.00000   0.00000   0.00000   0.00000   3.14159
         Item               Value     Threshold  Converged?
 Maximum Force            0.009167     0.000450     NO 
 RMS     Force            0.001953     0.000300     NO 
 Maximum Displacement     0.065866     0.001800     NO 
 RMS     Displacement     0.022196     0.001200     NO 
 Predicted change in Energy=-3.739995D-04
 GradGradGradGradGradGradGradGradGradGradGradGradGradGradGradGradGradGrad

                          Input orientation:                          
 ---------------------------------------------------------------------
 Center     Atomic      Atomic             Coordinates (Angstroms)
 Number     Number       Type             X           Y           Z
 ---------------------------------------------------------------------
      1          6           0        0.000000   -3.839936   -0.993028
      2          1           0        0.000000   -4.918373   -0.865688
      3          1           0        0.000000   -3.468396   -2.015651
      4          6           0        0.000000   -3.001436    0.057954
      5          1           0        0.000000   -3.413422    1.068164
      6          6           0        0.000000   -1.556413   -0.042980
      7          1           0        0.000000   -1.144899   -1.052662
      8          6           0        0.000000   -0.726643    1.028958
      9          1           0        0.000000   -1.189390    2.016680
     10          6           0        0.000000    0.726643    1.028958
     11          1           0        0.000000    1.189390    2.016680
     12          6           0        0.000000    1.556413   -0.042980
     13          1           0        0.000000    1.144899   -1.052662
     14          6           0        0.000000    3.001436    0.057954
     15          1           0        0.000000    3.413422    1.068164
     16          6           0        0.000000    3.839936   -0.993028
     17          1           0        0.000000    4.918373   -0.865688
     18          1           0        0.000000    3.468396   -2.015651
 ---------------------------------------------------------------------
                    Distance matrix (angstroms):
                    1          2          3          4          5
     1  C    0.000000
     2  H    1.085928   0.000000
     3  H    1.088025   1.850635   0.000000
     4  C    1.344487   2.127853   2.125532   0.000000
     5  H    2.104858   2.450440   3.084304   1.090989   0.000000
     6  C    2.473272   3.461159   2.747200   1.448545   2.164053
     7  H    2.695697   3.778103   2.515151   2.163376   3.105495
     8  C    3.712280   4.600030   4.097176   2.473365   2.687065
     9  H    4.010454   4.713105   4.631799   2.668356   2.417851
    10  C    4.994204   5.954484   5.183434   3.852457   4.140250
[...]
 ! R9    R(8,10)                 1.4519         -DE/DX =    0.0                 !
 ! R10   R(10,11)                1.0902         -DE/DX =    0.0                 !
 ! R11   R(10,12)                1.3556         -DE/DX =    0.0                 !
 ! R12   R(12,13)                1.0899         -DE/DX =    0.0                 !
 ! R13   R(12,14)                1.4476         -DE/DX =    0.0                 !
 ! R14   R(14,15)                1.0906         -DE/DX =    0.0                 !
 ! R15   R(14,16)                1.3443         -DE/DX =    0.0                 !
 ! R16   R(16,17)                1.0855         -DE/DX =    0.0                 !
 ! R17   R(16,18)                1.0877         -DE/DX =    0.0                 !
 ! A1    A(2,1,3)              116.6885         -DE/DX =    0.0                 !
 ! A2    A(2,1,4)              121.758          -DE/DX =    0.0                 !
 ! A3    A(3,1,4)              121.5536         -DE/DX =    0.0                 !
 ! A4    A(1,4,5)              119.1689         -DE/DX =    0.0                 !
 ! A5    A(1,4,6)              124.5273         -DE/DX =    0.0                 !
 ! A6    A(5,4,6)              116.3037         -DE/DX =    0.0                 !
 ! A7    A(4,6,7)              116.356          -DE/DX =    0.0                 !
 ! A8    A(4,6,8)              123.6128         -DE/DX =    0.0                 !
 ! A9    A(7,6,8)              120.0311         -DE/DX =    0.0                 !
 ! A10   A(6,8,9)              117.1721         -DE/DX =    0.0                 !
 ! A11   A(6,8,10)             127.6288         -DE/DX =    0.0                 !
 ! A12   A(9,8,10)             115.1992         -DE/DX =    0.0                 !
 ! A13   A(8,10,11)            115.1992         -DE/DX =    0.0                 !
 ! A14   A(8,10,12)            127.6288         -DE/DX =    0.0                 !
 ! A15   A(11,10,12)           117.1721         -DE/DX =    0.0                 !
 ! A16   A(10,12,13)           120.0311         -DE/DX =    0.0                 !
 ! A17   A(10,12,14)           123.6128         -DE/DX =    0.0                 !
 ! A18   A(13,12,14)           116.356          -DE/DX =    0.0                 !
 ! A19   A(12,14,15)           116.3037         -DE/DX =    0.0                 !
 ! A20   A(12,14,16)           124.5273         -DE/DX =    0.0                 !
 ! A21   A(15,14,16)           119.1689         -DE/DX =    0.0                 !
 ! A22   A(14,16,17)           121.758          -DE/DX =    0.0                 !
 ! A23   A(14,16,18)           121.5536         -DE/DX =    0.0                 !
 ! A24   A(17,16,18)           116.6885         -DE/DX =    0.0                 !
 ! D1    D(2,1,4,5)              0.0            -DE/DX =    0.0                 !
 ! D2    D(2,1,4,6)            180.0            -DE/DX =    0.0                 !
 ! D3    D(3,1,4,5)            180.0            -DE/DX =    0.0                 !
 ! D4    D(3,1,4,6)              0.0            -DE/DX =    0.0                 !
 ! D5    D(1,4,6,7)              0.0            -DE/DX =    0.0                 !
 ! D6    D(1,4,6,8)            180.0            -DE/DX =    0.0                 !
 ! D7    D(5,4,6,7)            180.0            -DE/DX =    0.0                 !
 ! D8    D(5,4,6,8)              0.0            -DE/DX =    0.0                 !
 ! D9    D(4,6,8,9)              0.0            -DE/DX =    0.0                 !
 ! D10   D(4,6,8,10)           180.0            -DE/DX =    0.0                 !
 ! D11   D(7,6,8,9)            180.0            -DE/DX =    0.0                 !
 ! D12   D(7,6,8,10)             0.0            -DE/DX =    0.0                 !
 ! D13   D(6,8,10,11)          180.0            -DE/DX =    0.0                 !
 ! D14   D(6,8,10,12)            0.0            -DE/DX =    0.0                 !
 ! D15   D(9,8,10,11)            0.0            -DE/DX =    0.0                 !
 ! D16   D(9,8,10,12)          180.0            -DE/DX =    0.0                 !
 ! D17   D(8,10,12,13)           0.0            -DE/DX =    0.0                 !
 ! D18   D(8,10,12,14)         180.0            -DE/DX =    0.0                 !
 ! D19   D(11,10,12,13)        180.0            -DE/DX =    0.0                 !
 ! D20   D(11,10,12,14)          0.0            -DE/DX =    0.0                 !
 ! D21   D(10,12,14,15)          0.0            -DE/DX =    0.0                 !
 ! D22   D(10,12,14,16)        180.0            -DE/DX =    0.0                 !
 ! D23   D(13,12,14,15)        180.0            -DE/DX =    0.0                 !
 ! D24   D(13,12,14,16)          0.0            -DE/DX =    0.0                 !
 ! D25   D(12,14,16,17)        180.0            -DE/DX =    0.0                 !
 ! D26   D(12,14,16,18)          0.0            -DE/DX =    0.0                 !
 ! D27   D(15,14,16,17)          0.0            -DE/DX =    0.0                 !
 ! D28   D(15,14,16,18)        180.0            -DE/DX =    0.0                 !
 --------------------------------------------------------------------------------
 GradGradGradGradGradGradGradGradGradGradGradGradGradGradGradGradGradGrad

 1\1\GINC-STUDENT-LENOVO-S510\Freq\RB3LYP\6-31G(d)\C8H10\STUDENT\02-Mar
 -2021\0\\#N Geom=AllCheck Guess=TCheck SCRF=Check GenChk RB3LYP/6-31G(
 d) Freq\\Title Card Required\\0,1\C,0.,-3.8352971406,-0.9934967474\H,0
 .,-4.9132361746,-0.8652409729\H,0.,-3.464997466,-2.0162604069\C,0.,-2.
 9976562157,0.0579319183\H,0.,-3.4112872978,1.0670803707\C,0.,-1.553616
 2354,-0.0434481797\H,0.,-1.1393421798,-1.0515413965\C,0.,-0.7259686485
 ,1.0301590069\H,0.,-1.1901182034,2.0165638776\C,0.,0.7259686485,1.0301
 590069\H,0.,1.1901182034,2.0165638776\C,0.,1.5536162354,-0.0434481797\
 H,0.,1.1393421798,-1.0515413965\C,0.,2.9976562157,0.0579319183\H,0.,3.
 4112872978,1.0670803707\C,0.,3.8352971406,-0.9934967474\H,0.,4.9132361
 746,-0.8652409729\H,0.,3.464997466,-2.0162604069\\Version=EM64L-G09Rev
 C.01\State=1-A1\HF=-310.8001325\RMSD=2.933e-09\RMSF=1.276e-05\ZeroPoin
 t=0.1526545\Thermal=0.1617187\Dipole=0.,0.,0.047591\DipoleDeriv=-0.316
 1275,0.,0.,0.,-0.2462575,-0.1225521,0.,-0.0582777,0.0422579,0.1375159,
 0.,0.,0.,-0.114007,0.0023523,0.,0.0131107,0.0392629,0.1386574,0.,0.,0.
 ,0.0132544,0.0804657,0.,0.0321461,-0.0755342,-0.0749394,0.,0.,0.,0.341
 3357,0.0369957,0.,-0.2473906,0.1227794,0.1077693,0.,0.,0.,-0.0143504,0
 .0188946,0.,0.107735,-0.1047549,-0.0871034,0.,0.,0.,-0.0785768,0.03849
 88,0.,0.0908746,0.0194981,0.108121,0.,0.,0.,-0.0134678,0.0429454,0.,0.
 066858,-0.081148,-0.126082,0.,0.,0.,0.13615,-0.1374406,0.,-0.438019,0.
 1294691,0.1121886,0.,0.,0.,-0.0240805,0.0859066,0.,0.0881593,-0.091830
 2,-0.126082,0.,0.,0.,0.1361501,0.1374406,0.,0.438019,0.1294691,0.11218
 86,0.,0.,0.,-0.0240805,-0.0859066,0.,-0.0881593,-0.0918302,-0.0871034,
 0.,0.,0.,-0.0785768,-0.0384988,0.,-0.0908746,0.0194981,0.108121,0.,0.,
 0.,-0.0134678,-0.0429454,0.,-0.0668581,-0.0811481,-0.0749393,0.,0.,0.,
 0.3413356,-0.0369957,0.,0.2473906,0.1227794,0.1077693,0.,0.,0.,-0.0143
 504,-0.0188946,0.,-0.1077351,-0.1047549,-0.3161275,0.,0.,0.,-0.2462575
 ,0.1225521,0.,0.0582777,0.0422579,0.1375159,0.,0.,0.,-0.114007,-0.0023
 523,0.,-0.0131107,0.0392629,0.1386574,0.,0.,0.,0.0132544,-0.0804657,0.
 ,-0.0321461,-0.0755342\Polar=29.1058797,0.,220.5922628,0.,0.,93.582202
 6\PG=C02V [SGV(C8H10)]\NImag=0\\0.10110014,0.,0.73007484,0.,0.09037558
 ,0.75361493,-0.03123894,0.,0.,0.02129741,0.,-0.34080053,0.03648440,0.,
 0.36093120,0.,0.04103118,-0.06408335,0.,-0.03763635,0.05914726,-0.0331
 4362,0.,0.,0.00221778,0.,0.,0.02181813,0.,-0.09531111,0.09437510,0.,-0
 .00585942,0.02696225,0.,0.09030783,0.,0.09072231,-0.30300285,0.,-0.000
 69760,-0.00002137,0.,-0.09822948,0.32462445,-0.04899697,0.,0.,0.004120
 82,0.,0.,0.00453089,0.,0.,0.13167711,0.,-0.26267085,-0.18625528,0.,-0.
 01525275,-0.02757213,0.,0.01138768,0.01081025,0.,0.66827246,0.,-0.2017
 0781,-0.37453074,0.,0.00541707,0.00694673,0.,-0.01936976,-0.02175816,0
 .,0.09142055,0.78546122,0.00510166,0.,0.,-0.00692909,0.,0.,0.01107961,
 0.,0.,-0.04175142,0.,0.,0.02737247,0.,0.01065998,-0.02082673,0.,0.0010
 7779,0.00014090,0.,-0.00184856,-0.00340154,0.,-0.09838544,0.09608296,0
 .,0.10307172,0.,0.01105975,-0.02187205,0.,-0.00026477,0.00129208,0.,-0
 .00308462,-0.00206370,0.,0.09503990,-0.28664341,0.,-0.10218852,0.30871
 509,0.00622235,0.,0.,0.01176515,0.,0.,-0.00741333,0.,0.,-0.06044200,0.
 ,0.,0.00305390,0.,0.,0.12970787,0.,-0.04297639,-0.02387088,0.,0.000455
 40,-0.00120672,0.,0.00145011,0.00249391,0.,-0.25585309,0.03999393,0.,-
 0.01093846,0.00024370,0.,0.66098059,0.,-0.03793008,0.00066894,0.,-0.00
 347222,-0.00408397,0.,-0.00152535,0.00137169,0.,0.03844300,-0.10344818
 ,0.,0.03030351,-0.00200856,0.,0.06976464,0.76718759,-0.00161111,0.,0.,
 -0.00028429,0.,0.,0.00034247,0.,0.,0.00336049,0.,0.,0.00363407,0.,0.,-
 0.04093738,0.,0.,0.02457610,0.,0.00164426,0.00126161,0.,0.00033784,-0.
 00041912,0.,0.00000253,-0.00133950,0.,-0.01054872,0.03061450,0.,-0.005
 32315,-0.00000276,0.,-0.09833514,0.09474284,0.,0.10331676,0.,-0.001007
 35,0.00118681,0.,0.00007178,0.00023684,0.,0.00059152,0.00038356,0.,-0.
 00004224,-0.00178831,0.,-0.00016923,0.00071119,0.,0.09452783,-0.287675
 08,0.,-0.10370165,0.30958286,0.00258106,0.,0.,-0.00005465,0.,0.,0.0001
 1507,0.,0.,0.00508527,0.,0.,-0.00171754,0.,0.,-0.05490911,0.,0.,0.0054
 0774,0.,0.,0.12925816,0.,0.00380601,0.01240591,0.,-0.00081831,-0.00112
 932,0.,0.00007064,-0.00052606,0.,-0.05072242,-0.04085653,0.,0.00156238
 ,-0.00151462,0.,-0.21816406,-0.15895452,0.,0.01308969,0.01157913,0.,0.
 65973833,0.,0.00902145,0.00715991,0.,0.00040553,0.00088860,0.,-0.00002
 266,0.00022051,0.,-0.02436197,-0.00180106,0.,0.00200302,0.00107234,0.,
 -0.16306946,-0.35439932,0.,-0.01846814,-0.02218357,0.,0.07230887,0.747
 89169,0.00011132,0.,0.,0.00021469,0.,0.,0.00035418,0.,0.,-0.00703626,0
 .,0.,0.00025355,0.,0.,0.00513002,0.,0.,0.01033731,0.,0.,-0.03913938,0.
 ,0.,0.02568649,0.,0.00016876,0.00002319,0.,0.00001545,0.00010342,0.,-0
 .00013610,0.00016235,0.,0.00086752,-0.00231960,0.,-0.00019603,0.000571
 66,0.,0.01079649,-0.01814383,0.,-0.00195930,-0.00295578,0.,-0.10738379
 ,0.10349095,0.,0.11604949,0.,-0.00047397,0.00042178,0.,-0.00007142,-0.
 00000068,0.,0.00019575,0.00023490,0.,0.00259885,0.00095930,0.,-0.00140
 474,0.00057824,0.,0.01207218,-0.02528432,0.,-0.00330820,-0.00250940,0.
 ,0.10370277,-0.27823874,0.,-0.11011752,0.29983374,0.00006339,0.,0.,-0.
 00122318,0.,0.,0.00008688,0.,0.,0.01045715,0.,0.,-0.00018890,0.,0.,0.0
 0499644,0.,0.,-0.00586810,0.,0.,-0.05778280,0.,0.,0.00283251,0.,0.,0.1
 2925816,0.,-0.00493269,-0.00567008,0.,0.00007158,-0.00013352,0.,-0.000
 07525,0.00011416,0.,0.01640270,0.00388365,0.,0.00026100,0.00021246,0.,
 -0.04904115,-0.02601235,0.,-0.00016446,0.00153796,0.,-0.25035503,0.025
 86501,0.,-0.01334518,-0.00278165,0.,0.65973833,0.,0.00105495,0.0025881
 0,0.,-0.00025072,-0.00024790,0.,0.00012628,-0.00002116,0.,-0.00608144,
 -0.00522995,0.,-0.00039380,0.00016833,0.,-0.01882044,0.01363146,0.,0.0
 0104437,0.00076395,0.,-0.02586501,-0.11383998,0.,0.03049339,0.00157678
 ,0.,-0.07230887,0.74789169,-0.00016174,0.,0.,0.00000329,0.,0.,0.000016
 34,0.,0.,0.00010061,0.,0.,0.00003004,0.,0.,0.00264640,0.,0.,-0.0001689
 7,0.,0.,0.00283251,0.,0.,-0.00121042,0.,0.,-0.03913938,0.,0.,0.0256864
 9,0.,-0.00058926,0.00009961,0.,-0.00011188,-0.00011878,0.,0.00002295,-
 0.00000851,0.,0.00019511,-0.00139187,0.,-0.00004179,0.00007331,0.,-0.0
 0543964,0.00262389,0.,0.00018088,-0.00010054,0.,-0.01334518,-0.0304933
 9,0.,0.00090632,0.00013113,0.,-0.10738379,-0.10349095,0.,0.11604949,0.
 ,-0.00009322,0.00004806,0.,-0.00001713,-0.00001555,0.,0.00001526,0.000
 00601,0.,0.00010271,-0.00014734,0.,-0.00004345,0.00002279,0.,0.0003803
 3,0.00118803,0.,0.00019870,0.00011800,0.,0.00278165,0.00157678,0.,-0.0
 0013113,0.00120841,0.,-0.10370277,-0.27823874,0.,0.11011752,0.29983374
 ,-0.00002473,0.,0.,0.00011291,0.,0.,-0.00007397,0.,0.,-0.00055396,0.,0
 .,0.00003430,0.,0.,0.00045530,0.,0.,0.00022984,0.,0.,0.00499644,0.,0.,
 0.00264640,0.,0.,-0.05490911,0.,0.,0.00513002,0.,0.,0.12970787,0.,0.00
 187083,0.00242771,0.,-0.00005207,0.00000340,0.,0.00001291,-0.00010081,
 0.,-0.00591564,-0.00198261,0.,0.00001210,-0.00016257,0.,0.01162082,0.0
 1252889,0.,-0.00048360,-0.00020500,0.,-0.04904115,0.01882044,0.,-0.005
 43964,-0.00038033,0.,-0.21816406,0.16306946,0.,0.01079649,-0.01207218,
 0.,0.66098059,0.,-0.00247472,-0.00194611,0.,0.00001986,-0.00012392,0.,
 -0.00007936,-0.00003072,0.,0.00566721,0.00020448,0.,0.00027322,0.00002
 566,0.,-0.01252889,-0.00463722,0.,-0.00103779,-0.00064045,0.,0.0260123
 5,0.01363146,0.,-0.00262389,0.00118803,0.,0.15895452,-0.35439932,0.,0.
 01814383,-0.02528432,0.,-0.06976464,0.76718759,0.00002675,0.,0.,-0.000
 06635,0.,0.,-0.00000302,0.,0.,-0.00007626,0.,0.,0.00001980,0.,0.,0.000
 22984,0.,0.,0.00108090,0.,0.,-0.00586810,0.,0.,-0.00016897,0.,0.,0.005
 40774,0.,0.,0.01033731,0.,0.,-0.04093738,0.,0.,0.02457610,0.,0.0000084
 1,0.00005656,0.,0.00001414,0.00000553,0.,-0.00001658,-0.00000727,0.,-0
 .00008443,-0.00031310,0.,0.00007423,-0.00000812,0.,-0.00048360,0.00103
 779,0.,-0.00175336,-0.00014874,0.,-0.00016446,-0.00104437,0.,0.0001808
 8,-0.00019870,0.,0.01308969,0.01846814,0.,-0.00195930,0.00330820,0.,-0
 .09833514,-0.09474284,0.,0.10331676,0.,0.00011095,-0.00002730,0.,-0.00
 001637,0.00001134,0.,0.00002577,0.00001679,0.,0.00006251,0.00070081,0.
 ,-0.00020516,0.00001829,0.,0.00020500,-0.00064045,0.,0.00014874,0.0010
 9367,0.,-0.00153796,0.00076395,0.,0.00010054,0.00011800,0.,-0.01157913
 ,-0.02218357,0.,0.00295578,-0.00250940,0.,-0.09452783,-0.28767508,0.,0
 .10370165,0.30958286,-0.00003194,0.,0.,0.00008264,0.,0.,0.00007380,0.,
 0.,-0.00061702,0.,0.,0.00001705,0.,0.,-0.00055396,0.,0.,-0.00007626,0.
 ,0.,0.01045715,0.,0.,0.00010061,0.,0.,0.00508527,0.,0.,-0.00703626,0.,
 0.,-0.06044200,0.,0.,0.00336049,0.,0.,0.13167711,0.,-0.00089687,-0.001
 49432,0.,0.00006620,0.00001285,0.,-0.00003327,0.00002991,0.,0.00307745
 ,0.00133701,0.,0.00009439,-0.00005352,0.,-0.00591564,-0.00566721,0.,-0
 .00008443,-0.00006251,0.,0.01640270,0.00608144,0.,0.00019511,-0.000102
 71,0.,-0.05072242,0.02436197,0.,0.00086752,-0.00259885,0.,-0.25585309,
 -0.03844300,0.,-0.01054872,0.00004224,0.,0.66827246,0.,0.00090997,0.00
 032755,0.,0.00003227,0.00006490,0.,0.00002408,0.00002400,0.,-0.0013370
 1,0.00070836,0.,-0.00015794,-0.00005018,0.,0.00198261,0.00020448,0.,0.
 00031310,0.00070081,0.,-0.00388365,-0.00522995,0.,0.00139187,-0.000147
 34,0.,0.04085653,-0.00180106,0.,0.00231960,0.00095930,0.,-0.03999393,-
 0.10344818,0.,-0.03061450,-0.00178831,0.,-0.09142055,0.78546122,-0.000
 01288,0.,0.,0.00000156,0.,0.,0.00000443,0.,0.,0.00001705,0.,0.,-0.0000
 0260,0.,0.,0.00003430,0.,0.,0.00001980,0.,0.,-0.00018890,0.,0.,0.00003
 004,0.,0.,-0.00171754,0.,0.,0.00025355,0.,0.,0.00305390,0.,0.,0.003634
 07,0.,0.,-0.04175142,0.,0.,0.02737247,0.,-0.00002048,-0.00001036,0.,-0
 .00000831,0.00000171,0.,0.00000903,0.00000704,0.,0.00009439,0.00015794
 ,0.,-0.00006039,0.00001411,0.,0.00001210,-0.00027322,0.,0.00007423,0.0
 0020516,0.,0.00026100,0.00039380,0.,-0.00004179,0.00004345,0.,0.001562
 38,-0.00200302,0.,-0.00019603,0.00140474,0.,-0.01093846,-0.03030351,0.
 ,-0.00532315,0.00016923,0.,-0.09838544,-0.09608296,0.,0.10307172,0.,-0
 .00005666,0.00001235,0.,-0.00001192,-0.00000203,0.,0.00000397,0.000003
 53,0.,0.00005352,-0.00005018,0.,-0.00001411,0.00002003,0.,0.00016257,0
 .00002566,0.,0.00000812,0.00001829,0.,-0.00021246,0.00016833,0.,-0.000
 07331,0.00002279,0.,0.00151462,0.00107234,0.,-0.00057166,0.00057824,0.
 ,-0.00024370,-0.00200856,0.,0.00000276,0.00071119,0.,-0.09503990,-0.28
 664341,0.,0.10218852,0.30871509,0.00003418,0.,0.,-0.00000679,0.,0.,-0.
 00001214,0.,0.,-0.00003194,0.,0.,-0.00001288,0.,0.,-0.00002473,0.,0.,0
 .00002675,0.,0.,0.00006339,0.,0.,-0.00016174,0.,0.,0.00258106,0.,0.,0.
 00011132,0.,0.,0.00622235,0.,0.,-0.00161111,0.,0.,-0.04899697,0.,0.,0.
 00510166,0.,0.,0.10110014,0.,0.00000811,0.00061071,0.,-0.00005855,-0.0
 0004021,0.,0.00001552,-0.00002818,0.,-0.00089687,-0.00090997,0.,-0.000
 02048,0.00005666,0.,0.00187083,0.00247472,0.,0.00000841,-0.00011095,0.
 ,-0.00493269,-0.00105495,0.,-0.00058926,0.00009322,0.,0.00380601,-0.00
 902145,0.,0.00016876,0.00047397,0.,-0.04297639,0.03793008,0.,0.0016442
 6,0.00100735,0.,-0.26267085,0.20170781,0.,0.01065998,-0.01105975,0.,0.
 73007484,0.,-0.00061071,-0.00054670,0.,0.00000379,-0.00002149,0.,-0.00
 001105,0.00000217,0.,0.00149432,0.00032755,0.,0.00001036,0.00001235,0.
 ,-0.00242771,-0.00194611,0.,-0.00005656,-0.00002730,0.,0.00567008,0.00
 258810,0.,-0.00009961,0.00004806,0.,-0.01240591,0.00715991,0.,-0.00002
 319,0.00042178,0.,0.02387088,0.00066894,0.,-0.00126161,0.00118681,0.,0
 .18625528,-0.37453074,0.,0.02082673,-0.02187205,0.,-0.09037558,0.75361
 493,-0.00000679,0.,0.,0.00000204,0.,0.,-0.00001498,0.,0.,0.00008264,0.
 ,0.,0.00000156,0.,0.,0.00011291,0.,0.,-0.00006635,0.,0.,-0.00122318,0.
 ,0.,0.00000329,0.,0.,-0.00005465,0.,0.,0.00021469,0.,0.,0.01176515,0.,
 0.,-0.00028429,0.,0.,0.00412082,0.,0.,-0.00692909,0.,0.,-0.03123894,0.
 ,0.,0.02129741,0.,-0.00005855,-0.00000379,0.,-0.00001194,-0.00000467,0
 .,0.00000417,0.00000087,0.,0.00006620,-0.00003227,0.,-0.00000831,0.000
 01192,0.,-0.00005207,-0.00001986,0.,0.00001414,0.00001637,0.,0.0000715
 8,0.00025072,0.,-0.00011188,0.00001713,0.,-0.00081831,-0.00040553,0.,0
 .00001545,0.00007142,0.,0.00045540,0.00347222,0.,0.00033784,-0.0000717
 8,0.,-0.01525275,-0.00541707,0.,0.00107779,0.00026477,0.,-0.34080053,-
 0.03648440,0.,0.36093120,0.,0.00004021,-0.00002149,0.,0.00000467,0.000
 00769,0.,0.00000043,0.00000481,0.,-0.00001285,0.00006490,0.,-0.0000017
 1,-0.00000203,0.,-0.00000340,-0.00012392,0.,-0.00000553,0.00001134,0.,
 0.00013352,-0.00024790,0.,0.00011878,-0.00001555,0.,0.00112932,0.00088
 860,0.,-0.00010342,-0.00000068,0.,0.00120672,-0.00408397,0.,0.00041912
 ,0.00023684,0.,0.02757213,0.00694673,0.,-0.00014090,0.00129208,0.,-0.0
 4103118,-0.06408335,0.,0.03763635,0.05914726,-0.00001214,0.,0.,-0.0000
 1498,0.,0.,0.00002148,0.,0.,0.00007380,0.,0.,0.00000443,0.,0.,-0.00007
 397,0.,0.,-0.00000302,0.,0.,0.00008688,0.,0.,0.00001634,0.,0.,0.000115
 07,0.,0.,0.00035418,0.,0.,-0.00741333,0.,0.,0.00034247,0.,0.,0.0045308
 9,0.,0.,0.01107961,0.,0.,-0.03314362,0.,0.,0.00221778,0.,0.,0.02181813
 ,0.,0.00001552,0.00001105,0.,0.00000417,-0.00000043,0.,-0.00000306,-0.
 00000187,0.,-0.00003327,-0.00002408,0.,0.00000903,-0.00000397,0.,0.000
 01291,0.00007936,0.,-0.00001658,-0.00002577,0.,-0.00007525,-0.00012628
 ,0.,0.00002295,-0.00001526,0.,0.00007064,0.00002266,0.,-0.00013610,-0.
 00019575,0.,0.00145011,0.00152535,0.,0.00000253,-0.00059152,0.,0.01138
 768,0.01936976,0.,-0.00184856,0.00308462,0.,-0.09531111,-0.09437510,0.
 ,-0.00585942,-0.02696225,0.,0.09030783,0.,0.00002818,0.00000217,0.,-0.
 00000087,0.00000481,0.,0.00000187,0.00000555,0.,-0.00002991,0.00002400
 ,0.,-0.00000704,0.00000353,0.,0.00010081,-0.00003072,0.,0.00000727,0.0
 0001679,0.,-0.00011416,-0.00002116,0.,0.00000851,0.00000601,0.,0.00052
 606,0.00022051,0.,-0.00016235,0.00023490,0.,-0.00249391,0.00137169,0.,
 0.00133950,0.00038356,0.,-0.01081025,-0.02175816,0.,0.00340154,-0.0020
 6370,0.,-0.09072231,-0.30300285,0.,0.00069760,-0.00002137,0.,0.0982294
 8,0.32462445\\0.,0.00000621,0.00000618,0.,0.00000960,-0.00000470,0.,0.
 00000059,-0.00000230,0.,-0.00002386,0.00000688,0.,0.00000261,0.0000045
 5,0.,0.00002698,0.00002771,0.,-0.00000169,-0.00000372,0.,-0.00000492,-
 0.00004363,0.,0.00000608,0.00000902,0.,0.00000492,-0.00004363,0.,-0.00
 000608,0.00000902,0.,-0.00002698,0.00002771,0.,0.00000169,-0.00000372,
 0.,0.00002386,0.00000688,0.,-0.00000261,0.00000455,0.,-0.00000621,0.00
 000618,0.,-0.00000960,-0.00000470,0.,-0.00000059,-0.00000230\\\@


 EDUCATION WITHOUT COMMON SENSE IS A LOAD OF BOOKS ON THE BACK OF AN ASS.
 Job cpu time:  0 days  0 hours  1 minutes 40.6 seconds.
 File lengths (MBytes):  RWF=     31 Int=      0 D2E=      0 Chk=      3 Scr=      1
 Normal termination of Gaussian 09 at Tue Mar  2 14:30:30 2021.
