 Entering Gaussian System, Link 0=g09
 Input=octa.com
 Output=octa.log
 Initial command:
 /home/student/g09/l1.exe /home/student/Aniruddha_1811022/Lab_3/Gau-8660.inp -scrdir=/home/student/Aniruddha_1811022/Lab_3/
 Entering Link 1 = /home/student/g09/l1.exe PID=      8662.
  
 Copyright (c) 1988,1990,1992,1993,1995,1998,2003,2009,2011,
            Gaussian, Inc.  All Rights Reserved.
  
 This is part of the Gaussian(R) 09 program.  It is based on
 the Gaussian(R) 03 system (copyright 2003, Gaussian, Inc.),
 the Gaussian(R) 98 system (copyright 1998, Gaussian, Inc.),
 the Gaussian(R) 94 system (copyright 1995, Gaussian, Inc.),
 the Gaussian 92(TM) system (copyright 1992, Gaussian, Inc.),
 the Gaussian 90(TM) system (copyright 1990, Gaussian, Inc.),
 the Gaussian 88(TM) system (copyright 1988, Gaussian, Inc.),
 the Gaussian 86(TM) system (copyright 1986, Carnegie Mellon
 University), and the Gaussian 82(TM) system (copyright 1983,
 Carnegie Mellon University). Gaussian is a federally registered
 trademark of Gaussian, Inc.
  
 This software contains proprietary and confidential information,
 including trade secrets, belonging to Gaussian, Inc.
  
 This software is provided under written license and may be
 used, copied, transmitted, or stored only in accord with that
 written license.
  
 The following legend is applicable only to US Government
 contracts under FAR:
  
                    RESTRICTED RIGHTS LEGEND
  
 Use, reproduction and disclosure by the US Government is
 subject to restrictions as set forth in subparagraphs (a)
 and (c) of the Commercial Computer Software - Restricted
 Rights clause in FAR 52.227-19.
  
 Gaussian, Inc.
 340 Quinnipiac St., Bldg. 40, Wallingford CT 06492
  
  
 ---------------------------------------------------------------
 Warning -- This program may not be used in any manner that
 competes with the business of Gaussian, Inc. or will provide
 assistance to any competitor of Gaussian, Inc.  The licensee
 of this program is prohibited from giving any competitor of
 Gaussian, Inc. access to this program.  By using this program,
 the user acknowledges that Gaussian, Inc. is engaged in the
 business of creating and licensing software in the field of
 computational chemistry and represents and warrants to the
 licensee that it is not a competitor of Gaussian, Inc. and that
 it will not use this program in any manner prohibited above.
 ---------------------------------------------------------------
  

 Cite this work as:
 Gaussian 09, Revision C.01,
 M. J. Frisch, G. W. Trucks, H. B. Schlegel, G. E. Scuseria, 
 M. A. Robb, J. R. Cheeseman, G. Scalmani, V. Barone, B. Mennucci, 
 G. A. Petersson, H. Nakatsuji, M. Caricato, X. Li, H. P. Hratchian, 
 A. F. Izmaylov, J. Bloino, G. Zheng, J. L. Sonnenberg, M. Hada, 
 M. Ehara, K. Toyota, R. Fukuda, J. Hasegawa, M. Ishida, T. Nakajima, 
 Y. Honda, O. Kitao, H. Nakai, T. Vreven, J. A. Montgomery, Jr., 
 J. E. Peralta, F. Ogliaro, M. Bearpark, J. J. Heyd, E. Brothers, 
 K. N. Kudin, V. N. Staroverov, T. Keith, R. Kobayashi, J. Normand, 
 K. Raghavachari, A. Rendell, J. C. Burant, S. S. Iyengar, J. Tomasi, 
 M. Cossi, N. Rega, J. M. Millam, M. Klene, J. E. Knox, J. B. Cross, 
 V. Bakken, C. Adamo, J. Jaramillo, R. Gomperts, R. E. Stratmann, 
 O. Yazyev, A. J. Austin, R. Cammi, C. Pomelli, J. W. Ochterski, 
 R. L. Martin, K. Morokuma, V. G. Zakrzewski, G. A. Voth, 
 P. Salvador, J. J. Dannenberg, S. Dapprich, A. D. Daniels, 
 O. Farkas, J. B. Foresman, J. V. Ortiz, J. Cioslowski, 
 and D. J. Fox, Gaussian, Inc., Wallingford CT, 2010.
 
 ******************************************
 Gaussian 09:  EM64L-G09RevC.01 23-Sep-2011
                 2-Mar-2021 
 ******************************************
 %chk=octa.chk
 --------------------------------------------------
 # b3lyp/6-31g* geom=connectivity opt freq pop=full
 --------------------------------------------------
 1/14=-1,18=20,19=15,26=3,38=1,57=2/1,3;
 2/9=110,12=2,17=6,18=5,40=1/2;
 3/5=1,6=6,7=1,11=2,16=1,25=1,30=1,71=1,74=-5/1,2,3;
 4//1;
 5/5=2,38=5/2;
 6/7=3,28=1/1;
 7//1,2,3,16;
 1/14=-1,18=20,19=15/3(2);
 2/9=110/2;
 99//99;
 2/9=110/2;
 3/5=1,6=6,7=1,11=2,16=1,25=1,30=1,71=1,74=-5/1,2,3;
 4/5=5,16=3/1;
 5/5=2,38=5/2;
 7//1,2,3,16;
 1/14=-1,18=20,19=15/3(-5);
 2/9=110/2;
 6/7=3,19=2,28=1/1;
 99/9=1/99;
 -------------------
 Title Card Required
 -------------------
 Charge =  0 Multiplicity = 1
 Symbolic Z-Matrix:
 C                    -0.22604  -4.34311   0. 
 H                     0.30189  -5.26939   0. 
 H                    -1.29314  -4.34312   0. 
 C                     0.45219  -3.16994   0. 
 H                     1.51928  -3.16993   0. 
 C                    -0.30765  -1.8368    0. 
 H                    -1.37474  -1.8368    0. 
 C                     0.37058  -0.66362   0. 
 H                     1.42466  -0.6595    0. 
 C                    -0.37058   0.66362   0. 
 H                    -1.42466   0.6595    0. 
 C                     0.30765   1.8368    0. 
 H                     1.37474   1.8368    0. 
 C                    -0.45219   3.16994   0. 
 H                    -1.51928   3.16993   0. 
 C                     0.22604   4.34311   0. 
 H                    -0.30189   5.26939   0. 
 H                     1.29314   4.34312   0. 
 

 GradGradGradGradGradGradGradGradGradGradGradGradGradGradGradGradGradGrad
 Berny optimization.
 Initialization pass.
                           ----------------------------
                           !    Initial Parameters    !
                           ! (Angstroms and Degrees)  !
 --------------------------                            --------------------------
 ! Name  Definition              Value          Derivative Info.                !
 --------------------------------------------------------------------------------
 ! R1    R(1,2)                  1.0662         estimate D2E/DX2                !
 ! R2    R(1,3)                  1.0671         estimate D2E/DX2                !
 ! R3    R(1,4)                  1.3551         estimate D2E/DX2                !
 ! R4    R(4,5)                  1.0671         estimate D2E/DX2                !
 ! R5    R(4,6)                  1.5345         estimate D2E/DX2                !
 ! R6    R(6,7)                  1.0671         estimate D2E/DX2                !
 ! R7    R(6,8)                  1.3551         estimate D2E/DX2                !
 ! R8    R(8,9)                  1.0541         estimate D2E/DX2                !
 ! R9    R(8,10)                 1.5202         estimate D2E/DX2                !
 ! R10   R(10,11)                1.0541         estimate D2E/DX2                !
 ! R11   R(10,12)                1.3551         estimate D2E/DX2                !
 ! R12   R(12,13)                1.0671         estimate D2E/DX2                !
 ! R13   R(12,14)                1.5345         estimate D2E/DX2                !
 ! R14   R(14,15)                1.0671         estimate D2E/DX2                !
 ! R15   R(14,16)                1.3551         estimate D2E/DX2                !
 ! R16   R(16,17)                1.0662         estimate D2E/DX2                !
 ! R17   R(16,18)                1.0671         estimate D2E/DX2                !
 ! A1    A(2,1,3)              119.6808         estimate D2E/DX2                !
 ! A2    A(2,1,4)              120.2859         estimate D2E/DX2                !
 ! A3    A(3,1,4)              120.0332         estimate D2E/DX2                !
 ! A4    A(1,4,5)              120.0332         estimate D2E/DX2                !
 ! A5    A(1,4,6)              120.2859         estimate D2E/DX2                !
 ! A6    A(5,4,6)              119.6808         estimate D2E/DX2                !
 ! A7    A(4,6,7)              119.6808         estimate D2E/DX2                !
 ! A8    A(4,6,8)              120.2859         estimate D2E/DX2                !
 ! A9    A(7,6,8)              120.0332         estimate D2E/DX2                !
 ! A10   A(6,8,9)              120.2567         estimate D2E/DX2                !
 ! A11   A(6,8,10)             120.7871         estimate D2E/DX2                !
 ! A12   A(9,8,10)             118.9562         estimate D2E/DX2                !
 ! A13   A(8,10,11)            118.9562         estimate D2E/DX2                !
 ! A14   A(8,10,12)            120.7871         estimate D2E/DX2                !
 ! A15   A(11,10,12)           120.2567         estimate D2E/DX2                !
 ! A16   A(10,12,13)           120.0332         estimate D2E/DX2                !
 ! A17   A(10,12,14)           120.2859         estimate D2E/DX2                !
 ! A18   A(13,12,14)           119.6808         estimate D2E/DX2                !
 ! A19   A(12,14,15)           119.6808         estimate D2E/DX2                !
 ! A20   A(12,14,16)           120.2859         estimate D2E/DX2                !
 ! A21   A(15,14,16)           120.0332         estimate D2E/DX2                !
 ! A22   A(14,16,17)           120.2859         estimate D2E/DX2                !
 ! A23   A(14,16,18)           120.0332         estimate D2E/DX2                !
 ! A24   A(17,16,18)           119.6808         estimate D2E/DX2                !
 ! D1    D(2,1,4,5)              0.0            estimate D2E/DX2                !
 ! D2    D(2,1,4,6)            180.0            estimate D2E/DX2                !
 ! D3    D(3,1,4,5)            180.0            estimate D2E/DX2                !
 ! D4    D(3,1,4,6)              0.0            estimate D2E/DX2                !
 ! D5    D(1,4,6,7)              0.0            estimate D2E/DX2                !
 ! D6    D(1,4,6,8)            180.0            estimate D2E/DX2                !
 ! D7    D(5,4,6,7)            180.0            estimate D2E/DX2                !
 ! D8    D(5,4,6,8)              0.0            estimate D2E/DX2                !
 ! D9    D(4,6,8,9)              0.0            estimate D2E/DX2                !
 ! D10   D(4,6,8,10)           180.0            estimate D2E/DX2                !
 ! D11   D(7,6,8,9)            180.0            estimate D2E/DX2                !
 ! D12   D(7,6,8,10)             0.0            estimate D2E/DX2                !
 ! D13   D(6,8,10,11)            0.0            estimate D2E/DX2                !
 ! D14   D(6,8,10,12)          180.0            estimate D2E/DX2                !
 ! D15   D(9,8,10,11)          180.0            estimate D2E/DX2                !
 ! D16   D(9,8,10,12)            0.0            estimate D2E/DX2                !
 ! D17   D(8,10,12,13)           0.0            estimate D2E/DX2                !
 ! D18   D(8,10,12,14)         180.0            estimate D2E/DX2                !
 ! D19   D(11,10,12,13)        180.0            estimate D2E/DX2                !
 ! D20   D(11,10,12,14)          0.0            estimate D2E/DX2                !
 ! D21   D(10,12,14,15)          0.0            estimate D2E/DX2                !
 ! D22   D(10,12,14,16)        180.0            estimate D2E/DX2                !
 ! D23   D(13,12,14,15)        180.0            estimate D2E/DX2                !
 ! D24   D(13,12,14,16)          0.0            estimate D2E/DX2                !
 ! D25   D(12,14,16,17)        180.0            estimate D2E/DX2                !
 ! D26   D(12,14,16,18)          0.0            estimate D2E/DX2                !
 ! D27   D(15,14,16,17)          0.0            estimate D2E/DX2                !
 ! D28   D(15,14,16,18)        180.0            estimate D2E/DX2                !
 --------------------------------------------------------------------------------
 Trust Radius=3.00D-01 FncErr=1.00D-07 GrdErr=1.00D-06
 Number of steps in this run=     79 maximum allowed number of steps=    108.
 GradGradGradGradGradGradGradGradGradGradGradGradGradGradGradGradGradGrad

                          Input orientation:                          
 ---------------------------------------------------------------------
 Center     Atomic      Atomic             Coordinates (Angstroms)
 Number     Number       Type             X           Y           Z
 ---------------------------------------------------------------------
      1          6           0       -0.226045   -4.343115    0.000000
      2          1           0        0.301891   -5.269389    0.000000
      3          1           0       -1.293140   -4.343122    0.000000
      4          6           0        0.452185   -3.169940    0.000000
      5          1           0        1.519281   -3.169933    0.000000
      6          6           0       -0.307647   -1.836798    0.000000
      7          1           0       -1.374743   -1.836805    0.000000
      8          6           0        0.370583   -0.663623    0.000000
      9          1           0        1.424663   -0.659504    0.000000
     10          6           0       -0.370583    0.663623    0.000000
     11          1           0       -1.424663    0.659504    0.000000
     12          6           0        0.307647    1.836798    0.000000
     13          1           0        1.374743    1.836805    0.000000
     14          6           0       -0.452185    3.169940    0.000000
     15          1           0       -1.519281    3.169933    0.000000
     16          6           0        0.226045    4.343115    0.000000
     17          1           0       -0.301891    5.269389    0.000000
     18          1           0        1.293140    4.343122    0.000000
 ---------------------------------------------------------------------
                    Distance matrix (angstroms):
                    1          2          3          4          5
     1  C    0.000000
     2  H    1.066161   0.000000
     3  H    1.067095   1.844477   0.000000
     4  C    1.355114   2.104822   2.102978   0.000000
     5  H    2.102978   2.426882   3.047308   1.067095   0.000000
     6  C    2.507645   3.486290   2.693113   1.534475   2.261618
     7  H    2.757008   3.820175   2.507645   2.261618   3.186315
     8  C    3.727549   4.606278   4.038154   2.507645   2.757008
     9  H    4.036561   4.744645   4.577717   2.692211   2.512211
    10  C    5.008824   5.971001   5.091032   3.920861   4.274077
    11  H    5.144209   6.175173   5.004355   4.264646   4.830258
    12  C    6.202914   7.106189   6.383880   5.008824   5.151253
    13  H    6.383880   7.186724   6.731203   5.091032   5.008824
    14  C    7.516457   8.472951   7.559981   6.404059   6.639327
    15  H    7.623539   8.633587   7.516457   6.639327   7.030416
    16  C    8.697986   9.612803   8.818085   7.516457   7.623539
    17  H    9.612803  10.556060   9.663485   8.472951   8.633587
    18  H    8.818085   9.663485   9.063094   7.559981   7.516457
                    6          7          8          9         10
     6  C    0.000000
     7  H    1.067095   0.000000
     8  C    1.355114   2.102978   0.000000
     9  H    2.094497   3.036891   1.054088   0.000000
    10  C    2.501212   2.694527   1.520167   2.230151   0.000000
    11  H    2.734821   2.496808   2.230151   3.139815   1.054088
    12  C    3.724767   4.040519   2.501212   2.734821   1.355114
    13  H    4.040519   4.588581   2.694527   2.496808   2.102978
    14  C    5.008824   5.091032   3.920861   4.264646   2.507645
    15  H    5.151253   5.008824   4.274077   4.830258   2.757008
    16  C    6.202914   6.383880   5.008824   5.144209   3.727549
    17  H    7.106189   7.186724   5.971001   6.175173   4.606278
    18  H    6.383880   6.731203   5.091032   5.004355   4.038154
                   11         12         13         14         15
    11  H    0.000000
    12  C    2.094497   0.000000
    13  H    3.036891   1.067095   0.000000
    14  C    2.692211   1.534475   2.261618   0.000000
    15  H    2.512211   2.261618   3.186315   1.067095   0.000000
    16  C    4.036561   2.507645   2.757008   1.355114   2.102978
    17  H    4.744645   3.486290   3.820175   2.104822   2.426882
    18  H    4.577717   2.693113   2.507645   2.102978   3.047308
                   16         17         18
    16  C    0.000000
    17  H    1.066161   0.000000
    18  H    1.067095   1.844477   0.000000
 Stoichiometry    C8H10
 Framework group  C2H[SGH(C8H10)]
 Deg. of freedom    17
 Full point group                 C2H     NOp   4
 Largest Abelian subgroup         C2H     NOp   4
 Largest concise Abelian subgroup C2      NOp   2
                         Standard orientation:                         
 ---------------------------------------------------------------------
 Center     Atomic      Atomic             Coordinates (Angstroms)
 Number     Number       Type             X           Y           Z
 ---------------------------------------------------------------------
      1          6           0        1.978018    3.873136    0.000000
      2          1           0        2.898669    4.410818    0.000000
      3          1           0        1.054196    4.407220    0.000000
      4          6           0        1.978018    2.518022    0.000000
      5          1           0        2.901840    1.983938    0.000000
      6          6           0        0.652969    1.744163    0.000000
      7          1           0       -0.270853    2.278247    0.000000
      8          6           0        0.652969    0.389049    0.000000
      9          1           0        1.563465   -0.142080    0.000000
     10          6           0       -0.652969   -0.389049    0.000000
     11          1           0       -1.563465    0.142080    0.000000
     12          6           0       -0.652969   -1.744163    0.000000
     13          1           0        0.270853   -2.278247    0.000000
     14          6           0       -1.978018   -2.518022    0.000000
     15          1           0       -2.901840   -1.983938    0.000000
     16          6           0       -1.978018   -3.873136    0.000000
     17          1           0       -2.898669   -4.410818    0.000000
     18          1           0       -1.054196   -4.407220    0.000000
 ---------------------------------------------------------------------
 Rotational constants (GHZ):     18.1754212      0.5569948      0.5404330
 Standard basis: 6-31G(d) (6D, 7F)
 There are    54 symmetry adapted basis functions of AG  symmetry.
 There are    16 symmetry adapted basis functions of BG  symmetry.
 There are    16 symmetry adapted basis functions of AU  symmetry.
 There are    54 symmetry adapted basis functions of BU  symmetry.
 Integral buffers will be    131072 words long.
 Raffenetti 2 integral format.
 Two-electron integral symmetry is turned on.
   140 basis functions,   264 primitive gaussians,   140 cartesian basis functions
    29 alpha electrons       29 beta electrons
       nuclear repulsion energy       293.8176863093 Hartrees.
 NAtoms=   18 NActive=   18 NUniq=    9 SFac= 4.00D+00 NAtFMM=   60 NAOKFM=F Big=F
 One-electron integrals computed using PRISM.
 NBasis=   140 RedAO= T  NBF=    54    16    16    54
 NBsUse=   140 1.00D-06 NBFU=    54    16    16    54
 Harris functional with IExCor=  402 diagonalized for initial guess.
 ExpMin= 1.61D-01 ExpMax= 3.05D+03 ExpMxC= 4.57D+02 IAcc=1 IRadAn=         1 AccDes= 0.00D+00
 HarFok:  IExCor=  402 AccDes= 0.00D+00 IRadAn=         1 IDoV= 1
 ScaDFX=  1.000000  1.000000  1.000000  1.000000
 FoFCou: FMM=F IPFlag=           0 FMFlag=      100000 FMFlg1=           0
         NFxFlg=           0 DoJE=T BraDBF=F KetDBF=T FulRan=T
         Omega=  0.000000  0.000000  1.000000  0.000000  0.000000 ICntrl=     500 IOpCl=  0
         NMat0=    1 NMatS0=    1 NMatT0=    0 NMatD0=    1 NMtDS0=    0 NMtDT0=    0
         I1Cent=           4 NGrid=           0.
 Petite list used in FoFCou.
 Initial guess orbital symmetries:
       Occupied  (BU) (AG) (AG) (BU) (AG) (BU) (AG) (BU) (AG) (BU)
                 (AG) (BU) (AG) (BU) (BU) (AG) (BU) (AG) (AG) (BU)
                 (BU) (AG) (AG) (BU) (AG) (AU) (BG) (AU) (BG)
       Virtual   (AU) (BG) (AU) (BG) (BU) (AG) (BU) (AG) (BU) (BU)
                 (AG) (BU) (AG) (AG) (BU) (AG) (BU) (AG) (BU) (BU)
                 (AG) (AG) (BU) (AU) (BU) (BG) (AU) (AG) (BG) (AG)
                 (BU) (BU) (AG) (BG) (AG) (BU) (AU) (AU) (BG) (AG)
                 (BU) (AG) (BU) (BU) (AG) (BU) (AG) (AG) (BU) (AG)
                 (BU) (BU) (BU) (AG) (AG) (AG) (BU) (AG) (BU) (AU)
                 (BU) (BG) (AU) (AG) (AG) (BG) (AU) (BU) (BG) (AU)
                 (BG) (AU) (AG) (AG) (BU) (AG) (BU) (BG) (BU) (BU)
                 (AG) (AU) (AG) (BU) (BG) (AG) (BU) (AG) (BU) (AG)
                 (AU) (BG) (BG) (AU) (BU) (AG) (BU) (AG) (BU) (AG)
                 (BU) (AG) (BU) (AG) (BU) (AG) (BU) (AG) (BU) (AG)
                 (BU)
 The electronic state of the initial guess is 1-AG.
 Requested convergence on RMS density matrix=1.00D-08 within 128 cycles.
 Requested convergence on MAX density matrix=1.00D-06.
 Requested convergence on             energy=1.00D-06.
 No special actions if energy rises.
 Integral accuracy reduced to 1.0D-05 until final iterations.
 Initial convergence to 1.0D-05 achieved.  Increase integral accuracy.
 SCF Done:  E(RB3LYP) =  -310.786726054     A.U. after   14 cycles
             Convg  =    0.3741D-08             -V/T =  2.0105

 **********************************************************************

            Population analysis using the SCF density.

 **********************************************************************

 Orbital symmetries:
       Occupied  (BU) (AG) (AG) (BU) (AG) (BU) (BU) (AG) (AG) (BU)
                 (AG) (BU) (AG) (BU) (BU) (AG) (BU) (AG) (AG) (BU)
                 (BU) (AG) (AG) (BU) (AU) (AG) (BG) (AU) (BG)
       Virtual   (AU) (BG) (AU) (BG) (BU) (AG) (BU) (AG) (AG) (BU)
                 (BU) (BU) (AG) (AG) (BU) (AG) (BU) (AG) (BU) (AG)
                 (BU) (AG) (BU) (AU) (BU) (BG) (AU) (AG) (BG) (AG)
                 (BU) (BG) (BU) (AG) (AU) (BU) (AG) (AU) (BG) (AG)
                 (BU) (AG) (BU) (BU) (AG) (BU) (AG) (AG) (BU) (AG)
                 (BU) (BU) (BU) (AG) (AG) (AG) (BU) (AG) (BU) (BU)
                 (AG) (AU) (BG) (AU) (AG) (BG) (BU) (AU) (BG) (AU)
                 (BG) (AU) (AG) (AG) (BU) (AG) (BU) (BG) (BU) (AG)
                 (BU) (AU) (AG) (BU) (BG) (BU) (AG) (AG) (BU) (AG)
                 (AU) (BG) (BG) (AU) (BU) (AG) (BU) (AG) (BU) (BU)
                 (AG) (AG) (BU) (AG) (BU) (AG) (BU) (AG) (BU) (AG)
                 (BU)
 The electronic state is 1-AG.
 Alpha  occ. eigenvalues --  -10.19678 -10.19678 -10.19474 -10.19473 -10.19313
 Alpha  occ. eigenvalues --  -10.19291 -10.17917 -10.17917  -0.81143  -0.78598
 Alpha  occ. eigenvalues --   -0.75100  -0.70930  -0.61192  -0.57026  -0.56644
 Alpha  occ. eigenvalues --   -0.55441  -0.47897  -0.45979  -0.45308  -0.41256
 Alpha  occ. eigenvalues --   -0.40188  -0.38464  -0.38065  -0.36164  -0.33339
 Alpha  occ. eigenvalues --   -0.33292  -0.30211  -0.25620  -0.20095
 Alpha virt. eigenvalues --   -0.04574   0.01625   0.06651   0.09080   0.10403
 Alpha virt. eigenvalues --    0.12904   0.12971   0.13243   0.14783   0.15333
 Alpha virt. eigenvalues --    0.17434   0.18899   0.19588   0.20722   0.27168
 Alpha virt. eigenvalues --    0.31909   0.32958   0.34235   0.35818   0.38250
 Alpha virt. eigenvalues --    0.39978   0.46529   0.50257   0.52590   0.54319
 Alpha virt. eigenvalues --    0.54413   0.57516   0.58658   0.59282   0.59903
 Alpha virt. eigenvalues --    0.61421   0.62691   0.63142   0.64757   0.65667
 Alpha virt. eigenvalues --    0.67606   0.68768   0.71454   0.72404   0.83311
 Alpha virt. eigenvalues --    0.85463   0.87008   0.87776   0.88434   0.89153
 Alpha virt. eigenvalues --    0.89256   0.90874   0.93455   0.94015   0.95261
 Alpha virt. eigenvalues --    0.98972   1.01758   1.04416   1.04782   1.07526
 Alpha virt. eigenvalues --    1.10095   1.12726   1.22210   1.23512   1.30268
 Alpha virt. eigenvalues --    1.33450   1.34464   1.34480   1.36952   1.39276
 Alpha virt. eigenvalues --    1.43878   1.47102   1.48182   1.54815   1.62374
 Alpha virt. eigenvalues --    1.70562   1.73157   1.75625   1.78489   1.79121
 Alpha virt. eigenvalues --    1.93927   1.94344   1.95357   1.99989   2.03047
 Alpha virt. eigenvalues --    2.03533   2.07901   2.11921   2.15115   2.21249
 Alpha virt. eigenvalues --    2.23508   2.23591   2.29590   2.33097   2.35792
 Alpha virt. eigenvalues --    2.38921   2.39771   2.43400   2.43507   2.48559
 Alpha virt. eigenvalues --    2.67765   2.70275   2.75840   2.84225   2.87299
 Alpha virt. eigenvalues --    2.88997   3.01283   3.02114   4.06057   4.06973
 Alpha virt. eigenvalues --    4.10130   4.15911   4.19204   4.31396   4.41721
 Alpha virt. eigenvalues --    4.50869
     Molecular Orbital Coefficients:
                           1         2         3         4         5
                        (BU)--O   (AG)--O   (AG)--O   (BU)--O   (AG)--O
     Eigenvalues --   -10.19678 -10.19678 -10.19474 -10.19473 -10.19313
   1 1   C  1S          0.01475   0.01474  -0.00092  -0.00092   0.00013
   2        2S          0.00037   0.00035  -0.00011  -0.00009  -0.00003
   3        2PX         0.00001   0.00002   0.00002   0.00002   0.00000
   4        2PY         0.00025   0.00024   0.00002   0.00001  -0.00001
   5        2PZ         0.00000   0.00000   0.00000   0.00000   0.00000
   6        3S          0.00334   0.00354  -0.00013  -0.00015   0.00055
   7        3PX        -0.00050  -0.00058   0.00021   0.00008  -0.00020
   8        3PY        -0.00138  -0.00149  -0.00006   0.00002  -0.00036
   9        3PZ         0.00000   0.00000   0.00000   0.00000   0.00000
  10        4XX        -0.00027  -0.00028   0.00004   0.00004  -0.00001
  11        4YY        -0.00037  -0.00036   0.00006   0.00006   0.00000
  12        4ZZ        -0.00023  -0.00024  -0.00003  -0.00002  -0.00001
  13        4XY         0.00002   0.00002  -0.00001   0.00000   0.00002
  14        4XZ         0.00000   0.00000   0.00000   0.00000   0.00000
  15        4YZ         0.00000   0.00000   0.00000   0.00000   0.00000
  16 2   H  1S         -0.00003  -0.00002  -0.00002  -0.00001   0.00000
  17        2S          0.00014   0.00018   0.00005   0.00006   0.00011
  18 3   H  1S         -0.00010  -0.00011   0.00000   0.00000  -0.00004
  19        2S         -0.00026  -0.00028   0.00012   0.00003   0.00004
  20 4   C  1S          0.70097   0.70097  -0.03516  -0.03531   0.00506
  21        2S          0.03468   0.03470  -0.00191  -0.00186   0.00024
  22        2PX        -0.00004  -0.00003   0.00014   0.00014  -0.00004
  23        2PY        -0.00002   0.00000   0.00004   0.00005   0.00003
  24        2PZ         0.00000   0.00000   0.00000   0.00000   0.00000
  25        3S         -0.01028  -0.01059   0.00364   0.00305  -0.00106
  26        3PX         0.00115   0.00122  -0.00137  -0.00086   0.00037
  27        3PY        -0.00060  -0.00069  -0.00098  -0.00079  -0.00028
  28        3PZ         0.00000   0.00000   0.00000   0.00000   0.00000
  29        4XX        -0.00657  -0.00657   0.00002   0.00001   0.00006
  30        4YY        -0.00639  -0.00641   0.00015   0.00016   0.00001
  31        4ZZ        -0.00670  -0.00670   0.00021   0.00024  -0.00003
  32        4XY        -0.00006  -0.00007  -0.00009  -0.00010   0.00005
  33        4XZ         0.00000   0.00000   0.00000   0.00000   0.00000
  34        4YZ         0.00000   0.00000   0.00000   0.00000   0.00000
  35 5   H  1S         -0.00029  -0.00030  -0.00007  -0.00006  -0.00002
  36        2S          0.00126   0.00126  -0.00016  -0.00031  -0.00009
  37 6   C  1S          0.03526   0.03517   0.68083   0.68531  -0.16753
  38        2S          0.00162   0.00156   0.03369   0.03398  -0.00873
  39        2PX        -0.00015  -0.00017   0.00007   0.00002   0.00001
  40        2PY        -0.00006  -0.00007   0.00005   0.00002   0.00027
  41        2PZ         0.00000   0.00000   0.00000   0.00000   0.00000
  42        3S          0.00236   0.00324  -0.00993  -0.01012   0.00637
  43        3PX         0.00096   0.00125  -0.00162  -0.00084  -0.00011
  44        3PY         0.00104   0.00062   0.00024   0.00093  -0.00170
  45        3PZ         0.00000   0.00000   0.00000   0.00000   0.00000
  46        4XX        -0.00065  -0.00066  -0.00639  -0.00643   0.00143
  47        4YY        -0.00051  -0.00049  -0.00626  -0.00634   0.00135
  48        4ZZ        -0.00044  -0.00046  -0.00654  -0.00657   0.00149
  49        4XY        -0.00010  -0.00010  -0.00005  -0.00005   0.00002
  50        4XZ         0.00000   0.00000   0.00000   0.00000   0.00000
  51        4YZ         0.00000   0.00000   0.00000   0.00000   0.00000
  52 7   H  1S         -0.00008  -0.00008  -0.00034  -0.00025  -0.00001
  53        2S         -0.00018  -0.00004   0.00118   0.00121  -0.00064
  54 8   C  1S          0.00324   0.00346   0.16723   0.14787   0.68170
  55        2S          0.00014   0.00010   0.00786   0.00703   0.03387
  56        2PX        -0.00005  -0.00004   0.00003  -0.00002   0.00013
  57        2PY        -0.00004   0.00000  -0.00023  -0.00030   0.00014
  58        2PZ         0.00000   0.00000   0.00000   0.00000   0.00000
  59        3S         -0.00035  -0.00032   0.00204   0.00147  -0.00857
  60        3PX         0.00047   0.00005   0.00055   0.00054  -0.00009
  61        3PY         0.00047  -0.00060   0.00123   0.00187  -0.00214
  62        3PZ         0.00000   0.00000   0.00000   0.00000   0.00000
  63        4XX        -0.00003  -0.00001  -0.00178  -0.00151  -0.00667
  64        4YY         0.00001  -0.00002  -0.00177  -0.00155  -0.00638
  65        4ZZ        -0.00004  -0.00007  -0.00174  -0.00149  -0.00663
  66        4XY        -0.00003  -0.00001   0.00000   0.00001  -0.00016
  67        4XZ         0.00000   0.00000   0.00000   0.00000   0.00000
  68        4YZ         0.00000   0.00000   0.00000   0.00000   0.00000
  69 9   H  1S          0.00000  -0.00006  -0.00016  -0.00010  -0.00034
  70        2S         -0.00012  -0.00010  -0.00012   0.00025   0.00117
  71 10  C  1S         -0.00324   0.00346   0.16723  -0.14787   0.68170
  72        2S         -0.00014   0.00010   0.00786  -0.00703   0.03387
  73        2PX        -0.00005   0.00004  -0.00003  -0.00002  -0.00013
  74        2PY        -0.00004   0.00000   0.00023  -0.00030  -0.00014
  75        2PZ         0.00000   0.00000   0.00000   0.00000   0.00000
  76        3S          0.00035  -0.00032   0.00204  -0.00147  -0.00857
  77        3PX         0.00047  -0.00005  -0.00055   0.00054   0.00009
  78        3PY         0.00047   0.00060  -0.00123   0.00187   0.00214
  79        3PZ         0.00000   0.00000   0.00000   0.00000   0.00000
  80        4XX         0.00003  -0.00001  -0.00178   0.00151  -0.00667
  81        4YY        -0.00001  -0.00002  -0.00177   0.00155  -0.00638
  82        4ZZ         0.00004  -0.00007  -0.00174   0.00149  -0.00663
  83        4XY         0.00003  -0.00001   0.00000  -0.00001  -0.00016
  84        4XZ         0.00000   0.00000   0.00000   0.00000   0.00000
  85        4YZ         0.00000   0.00000   0.00000   0.00000   0.00000
  86 11  H  1S          0.00000  -0.00006  -0.00016   0.00010  -0.00034
  87        2S          0.00012  -0.00010  -0.00012  -0.00025   0.00117
  88 12  C  1S         -0.03526   0.03517   0.68083  -0.68531  -0.16753
  89        2S         -0.00162   0.00156   0.03369  -0.03398  -0.00873
  90        2PX        -0.00015   0.00017  -0.00007   0.00002  -0.00001
  91        2PY        -0.00006   0.00007  -0.00005   0.00002  -0.00027
  92        2PZ         0.00000   0.00000   0.00000   0.00000   0.00000
  93        3S         -0.00236   0.00324  -0.00993   0.01012   0.00637
  94        3PX         0.00096  -0.00125   0.00162  -0.00084   0.00011
  95        3PY         0.00104  -0.00062  -0.00024   0.00093   0.00170
  96        3PZ         0.00000   0.00000   0.00000   0.00000   0.00000
  97        4XX         0.00065  -0.00066  -0.00639   0.00643   0.00143
  98        4YY         0.00051  -0.00049  -0.00626   0.00634   0.00135
  99        4ZZ         0.00044  -0.00046  -0.00654   0.00657   0.00149
 100        4XY         0.00010  -0.00010  -0.00005   0.00005   0.00002
 101        4XZ         0.00000   0.00000   0.00000   0.00000   0.00000
 102        4YZ         0.00000   0.00000   0.00000   0.00000   0.00000
 103 13  H  1S          0.00008  -0.00008  -0.00034   0.00025  -0.00001
 104        2S          0.00018  -0.00004   0.00118  -0.00121  -0.00064
 105 14  C  1S         -0.70097   0.70097  -0.03516   0.03531   0.00506
 106        2S         -0.03468   0.03470  -0.00191   0.00186   0.00024
 107        2PX        -0.00004   0.00003  -0.00014   0.00014   0.00004
 108        2PY        -0.00002   0.00000  -0.00004   0.00005  -0.00003
 109        2PZ         0.00000   0.00000   0.00000   0.00000   0.00000
 110        3S          0.01028  -0.01059   0.00364  -0.00305  -0.00106
 111        3PX         0.00115  -0.00122   0.00137  -0.00086  -0.00037
 112        3PY        -0.00060   0.00069   0.00098  -0.00079   0.00028
 113        3PZ         0.00000   0.00000   0.00000   0.00000   0.00000
 114        4XX         0.00657  -0.00657   0.00002  -0.00001   0.00006
 115        4YY         0.00639  -0.00641   0.00015  -0.00016   0.00001
 116        4ZZ         0.00670  -0.00670   0.00021  -0.00024  -0.00003
 117        4XY         0.00006  -0.00007  -0.00009   0.00010   0.00005
 118        4XZ         0.00000   0.00000   0.00000   0.00000   0.00000
 119        4YZ         0.00000   0.00000   0.00000   0.00000   0.00000
 120 15  H  1S          0.00029  -0.00030  -0.00007   0.00006  -0.00002
 121        2S         -0.00126   0.00126  -0.00016   0.00031  -0.00009
 122 16  C  1S         -0.01475   0.01474  -0.00092   0.00092   0.00013
 123        2S         -0.00037   0.00035  -0.00011   0.00009  -0.00003
 124        2PX         0.00001  -0.00002  -0.00002   0.00002   0.00000
 125        2PY         0.00025  -0.00024  -0.00002   0.00001   0.00001
 126        2PZ         0.00000   0.00000   0.00000   0.00000   0.00000
 127        3S         -0.00334   0.00354  -0.00013   0.00015   0.00055
 128        3PX        -0.00050   0.00058  -0.00021   0.00008   0.00020
 129        3PY        -0.00138   0.00149   0.00006   0.00002   0.00036
 130        3PZ         0.00000   0.00000   0.00000   0.00000   0.00000
 131        4XX         0.00027  -0.00028   0.00004  -0.00004  -0.00001
 132        4YY         0.00037  -0.00036   0.00006  -0.00006   0.00000
 133        4ZZ         0.00023  -0.00024  -0.00003   0.00002  -0.00001
 134        4XY        -0.00002   0.00002  -0.00001   0.00000   0.00002
 135        4XZ         0.00000   0.00000   0.00000   0.00000   0.00000
 136        4YZ         0.00000   0.00000   0.00000   0.00000   0.00000
 137 17  H  1S          0.00003  -0.00002  -0.00002   0.00001   0.00000
 138        2S         -0.00014   0.00018   0.00005  -0.00006   0.00011
 139 18  H  1S          0.00010  -0.00011   0.00000   0.00000  -0.00004
 140        2S          0.00026  -0.00028   0.00012  -0.00003   0.00004
                           6         7         8         9        10
                        (BU)--O   (BU)--O   (AG)--O   (AG)--O   (BU)--O
     Eigenvalues --   -10.19291 -10.17917 -10.17917  -0.81143  -0.78598
   1 1   C  1S          0.00012   0.70179   0.70179  -0.03873  -0.07670
   2        2S          0.00000   0.03494   0.03493   0.07378   0.14714
   3        2PX         0.00002  -0.00002  -0.00002  -0.00473  -0.00560
   4        2PY         0.00002   0.00001   0.00001  -0.03227  -0.05628
   5        2PZ         0.00000   0.00000   0.00000   0.00000   0.00000
   6        3S         -0.00019  -0.00953  -0.00951   0.06107   0.11808
   7        3PX        -0.00037   0.00010   0.00013   0.00056   0.00008
   8        3PY        -0.00003   0.00086   0.00084  -0.00732  -0.00942
   9        3PZ         0.00000   0.00000   0.00000   0.00000   0.00000
  10        4XX         0.00000  -0.00665  -0.00665  -0.00019   0.00022
  11        4YY        -0.00001  -0.00657  -0.00656   0.00297   0.00481
  12        4ZZ         0.00000  -0.00692  -0.00692  -0.00424  -0.00817
  13        4XY         0.00002   0.00000   0.00000   0.00037   0.00044
  14        4XZ         0.00000   0.00000   0.00000   0.00000   0.00000
  15        4YZ         0.00000   0.00000   0.00000   0.00000   0.00000
  16 2   H  1S          0.00004  -0.00026  -0.00027   0.01695   0.03719
  17        2S          0.00018   0.00153   0.00153   0.00171   0.00558
  18 3   H  1S         -0.00004  -0.00024  -0.00024   0.02005   0.04096
  19        2S         -0.00004   0.00161   0.00163   0.00448   0.00838
  20 4   C  1S          0.00431  -0.01510  -0.01509  -0.06342  -0.10159
  21        2S          0.00022  -0.00109  -0.00111   0.12350   0.19900
  22        2PX        -0.00004   0.00001   0.00001  -0.02461  -0.02374
  23        2PY        -0.00002  -0.00029  -0.00029  -0.00128   0.02391
  24        2PZ         0.00000   0.00000   0.00000   0.00000   0.00000
  25        3S         -0.00076   0.00356   0.00369   0.07526   0.13109
  26        3PX         0.00047   0.00005  -0.00005  -0.00114   0.00334
  27        3PY         0.00061   0.00144   0.00138  -0.01288  -0.01457
  28        3PZ         0.00000   0.00000   0.00000   0.00000   0.00000
  29        4XX         0.00005  -0.00003  -0.00002   0.00283   0.00222
  30        4YY         0.00003  -0.00008  -0.00008   0.00190   0.00339
  31        4ZZ        -0.00002   0.00006   0.00005  -0.00683  -0.01060
  32        4XY         0.00003   0.00000   0.00000   0.00212   0.00116
  33        4XZ         0.00000   0.00000   0.00000   0.00000   0.00000
  34        4YZ         0.00000   0.00000   0.00000   0.00000   0.00000
  35 5   H  1S          0.00005  -0.00004  -0.00004   0.03275   0.05395
  36        2S         -0.00006  -0.00010  -0.00009   0.00454   0.00576
  37 6   C  1S         -0.14815   0.00018   0.00018  -0.09503  -0.08785
  38        2S         -0.00773  -0.00002  -0.00003   0.18397   0.17137
  39        2PX        -0.00004   0.00000   0.00002   0.00875   0.03089
  40        2PY         0.00027  -0.00005  -0.00004  -0.04704  -0.00398
  41        2PZ         0.00000   0.00000   0.00000   0.00000   0.00000
  42        3S          0.00691  -0.00058  -0.00066   0.13244   0.11152
  43        3PX        -0.00007  -0.00019  -0.00030  -0.00089  -0.00044
  44        3PY        -0.00225   0.00057   0.00045  -0.00069   0.02065
  45        3PZ         0.00000   0.00000   0.00000   0.00000   0.00000
  46        4XX         0.00120   0.00004   0.00004   0.00071   0.00347
  47        4YY         0.00111   0.00000   0.00000   0.00502   0.00208
  48        4ZZ         0.00133  -0.00001  -0.00002  -0.01019  -0.00917
  49        4XY         0.00005   0.00003   0.00002   0.00088   0.00181
  50        4XZ         0.00000   0.00000   0.00000   0.00000   0.00000
  51        4YZ         0.00000   0.00000   0.00000   0.00000   0.00000
  52 7   H  1S         -0.00001  -0.00002  -0.00003   0.04905   0.04648
  53        2S         -0.00039  -0.00022  -0.00019   0.00719   0.00390
  54 8   C  1S          0.68636   0.00000   0.00001  -0.10920  -0.04383
  55        2S          0.03442  -0.00004  -0.00005   0.21183   0.08527
  56        2PX        -0.00020  -0.00001   0.00000  -0.02391   0.02233
  57        2PY         0.00000   0.00000   0.00000   0.02710   0.06513
  58        2PZ         0.00000   0.00000   0.00000   0.00000   0.00000
  59        3S         -0.01546   0.00045   0.00068   0.14068   0.07392
  60        3PX         0.00237   0.00035   0.00006  -0.00006   0.00580
  61        3PY        -0.00042   0.00052   0.00052  -0.01053   0.01718
  62        3PZ         0.00000   0.00000   0.00000   0.00000   0.00000
  63        4XX        -0.00607  -0.00001   0.00000   0.00264  -0.00297
  64        4YY        -0.00608   0.00003   0.00002   0.00444   0.00368
  65        4ZZ        -0.00645  -0.00001  -0.00002  -0.01165  -0.00450
  66        4XY         0.00002   0.00001   0.00001   0.00195  -0.00210
  67        4XZ         0.00000   0.00000   0.00000   0.00000   0.00000
  68        4YZ         0.00000   0.00000   0.00000   0.00000   0.00000
  69 9   H  1S         -0.00021  -0.00003  -0.00003   0.05773   0.02390
  70        2S          0.00150  -0.00003   0.00012   0.00772   0.00339
  71 10  C  1S         -0.68636   0.00000   0.00001  -0.10920   0.04383
  72        2S         -0.03442   0.00004  -0.00005   0.21183  -0.08527
  73        2PX        -0.00020  -0.00001   0.00000   0.02391   0.02233
  74        2PY         0.00000   0.00000   0.00000  -0.02710   0.06513
  75        2PZ         0.00000   0.00000   0.00000   0.00000   0.00000
  76        3S          0.01546  -0.00045   0.00068   0.14068  -0.07392
  77        3PX         0.00237   0.00035  -0.00006   0.00006   0.00580
  78        3PY        -0.00042   0.00052  -0.00052   0.01053   0.01718
  79        3PZ         0.00000   0.00000   0.00000   0.00000   0.00000
  80        4XX         0.00607   0.00001   0.00000   0.00264   0.00297
  81        4YY         0.00608  -0.00003   0.00002   0.00444  -0.00368
  82        4ZZ         0.00645   0.00001  -0.00002  -0.01165   0.00450
  83        4XY        -0.00002  -0.00001   0.00001   0.00195   0.00210
  84        4XZ         0.00000   0.00000   0.00000   0.00000   0.00000
  85        4YZ         0.00000   0.00000   0.00000   0.00000   0.00000
  86 11  H  1S          0.00021   0.00003  -0.00003   0.05773  -0.02390
  87        2S         -0.00150   0.00003   0.00012   0.00772  -0.00339
  88 12  C  1S          0.14815  -0.00018   0.00018  -0.09503   0.08785
  89        2S          0.00773   0.00002  -0.00003   0.18397  -0.17137
  90        2PX        -0.00004   0.00000  -0.00002  -0.00875   0.03089
  91        2PY         0.00027  -0.00005   0.00004   0.04704  -0.00398
  92        2PZ         0.00000   0.00000   0.00000   0.00000   0.00000
  93        3S         -0.00691   0.00058  -0.00066   0.13244  -0.11152
  94        3PX        -0.00007  -0.00019   0.00030   0.00089  -0.00044
  95        3PY        -0.00225   0.00057  -0.00045   0.00069   0.02065
  96        3PZ         0.00000   0.00000   0.00000   0.00000   0.00000
  97        4XX        -0.00120  -0.00004   0.00004   0.00071  -0.00347
  98        4YY        -0.00111   0.00000   0.00000   0.00502  -0.00208
  99        4ZZ        -0.00133   0.00001  -0.00002  -0.01019   0.00917
 100        4XY        -0.00005  -0.00003   0.00002   0.00088  -0.00181
 101        4XZ         0.00000   0.00000   0.00000   0.00000   0.00000
 102        4YZ         0.00000   0.00000   0.00000   0.00000   0.00000
 103 13  H  1S          0.00001   0.00002  -0.00003   0.04905  -0.04648
 104        2S          0.00039   0.00022  -0.00019   0.00719  -0.00390
 105 14  C  1S         -0.00431   0.01510  -0.01509  -0.06342   0.10159
 106        2S         -0.00022   0.00109  -0.00111   0.12350  -0.19900
 107        2PX        -0.00004   0.00001  -0.00001   0.02461  -0.02374
 108        2PY        -0.00002  -0.00029   0.00029   0.00128   0.02391
 109        2PZ         0.00000   0.00000   0.00000   0.00000   0.00000
 110        3S          0.00076  -0.00356   0.00369   0.07526  -0.13109
 111        3PX         0.00047   0.00005   0.00005   0.00114   0.00334
 112        3PY         0.00061   0.00144  -0.00138   0.01288  -0.01457
 113        3PZ         0.00000   0.00000   0.00000   0.00000   0.00000
 114        4XX        -0.00005   0.00003  -0.00002   0.00283  -0.00222
 115        4YY        -0.00003   0.00008  -0.00008   0.00190  -0.00339
 116        4ZZ         0.00002  -0.00006   0.00005  -0.00683   0.01060
 117        4XY        -0.00003   0.00000   0.00000   0.00212  -0.00116
 118        4XZ         0.00000   0.00000   0.00000   0.00000   0.00000
 119        4YZ         0.00000   0.00000   0.00000   0.00000   0.00000
 120 15  H  1S         -0.00005   0.00004  -0.00004   0.03275  -0.05395
 121        2S          0.00006   0.00010  -0.00009   0.00454  -0.00576
 122 16  C  1S         -0.00012  -0.70179   0.70179  -0.03873   0.07670
 123        2S          0.00000  -0.03494   0.03493   0.07378  -0.14714
 124        2PX         0.00002  -0.00002   0.00002   0.00473  -0.00560
 125        2PY         0.00002   0.00001  -0.00001   0.03227  -0.05628
 126        2PZ         0.00000   0.00000   0.00000   0.00000   0.00000
 127        3S          0.00019   0.00953  -0.00951   0.06107  -0.11808
 128        3PX        -0.00037   0.00010  -0.00013  -0.00056   0.00008
 129        3PY        -0.00003   0.00086  -0.00084   0.00732  -0.00942
 130        3PZ         0.00000   0.00000   0.00000   0.00000   0.00000
 131        4XX         0.00000   0.00665  -0.00665  -0.00019  -0.00022
 132        4YY         0.00001   0.00657  -0.00656   0.00297  -0.00481
 133        4ZZ         0.00000   0.00692  -0.00692  -0.00424   0.00817
 134        4XY        -0.00002   0.00000   0.00000   0.00037  -0.00044
 135        4XZ         0.00000   0.00000   0.00000   0.00000   0.00000
 136        4YZ         0.00000   0.00000   0.00000   0.00000   0.00000
 137 17  H  1S         -0.00004   0.00026  -0.00027   0.01695  -0.03719
 138        2S         -0.00018  -0.00153   0.00153   0.00171  -0.00558
 139 18  H  1S          0.00004   0.00024  -0.00024   0.02005  -0.04096
 140        2S          0.00004  -0.00161   0.00163   0.00448  -0.00838
                          11        12        13        14        15
                        (AG)--O   (BU)--O   (AG)--O   (BU)--O   (BU)--O
     Eigenvalues --    -0.75100  -0.70930  -0.61192  -0.57026  -0.56644
   1 1   C  1S         -0.10105   0.09200  -0.08342   0.05261  -0.05686
   2        2S          0.19499  -0.17873   0.16651  -0.10643   0.11475
   3        2PX         0.00033  -0.00903   0.02076   0.03808   0.01754
   4        2PY        -0.05768   0.03008   0.05844  -0.09300   0.09312
   5        2PZ         0.00000   0.00000   0.00000   0.00000   0.00000
   6        3S          0.15361  -0.14516   0.14599  -0.09462   0.11985
   7        3PX        -0.00432   0.00571   0.00613   0.01048   0.00889
   8        3PY        -0.00526  -0.00182   0.02770  -0.03445   0.03134
   9        3PZ         0.00000   0.00000   0.00000   0.00000   0.00000
  10        4XX         0.00126  -0.00233   0.00666  -0.00757   0.00716
  11        4YY         0.00451  -0.00210  -0.00380   0.00556  -0.00462
  12        4ZZ        -0.01056   0.00941  -0.00782   0.00475  -0.00508
  13        4XY         0.00004   0.00047  -0.00062  -0.00094  -0.00001
  14        4XZ         0.00000   0.00000   0.00000   0.00000   0.00000
  15        4YZ         0.00000   0.00000   0.00000   0.00000   0.00000
  16 2   H  1S          0.05681  -0.06191   0.08865  -0.05362   0.07955
  17        2S          0.01369  -0.01929   0.03565  -0.02449   0.03623
  18 3   H  1S          0.05640  -0.05535   0.07268  -0.08533   0.06448
  19        2S          0.00983  -0.00917   0.02655  -0.04428   0.02946
  20 4   C  1S         -0.09227   0.04155   0.04625  -0.07102   0.05296
  21        2S          0.18312  -0.08472  -0.09430   0.14698  -0.10909
  22        2PX         0.00910  -0.04353   0.05503   0.08190   0.02338
  23        2PY         0.07293  -0.10159   0.11448  -0.07805   0.04725
  24        2PZ         0.00000   0.00000   0.00000   0.00000   0.00000
  25        3S          0.12277  -0.04643  -0.08367   0.12903  -0.10690
  26        3PX         0.01591  -0.02495   0.01056   0.02821   0.00467
  27        3PY         0.00462  -0.02390   0.04141  -0.03442   0.01110
  28        3PZ         0.00000   0.00000   0.00000   0.00000   0.00000
  29        4XX        -0.00201   0.00574  -0.00832   0.00261  -0.00599
  30        4YY         0.00385  -0.00347   0.00674  -0.00393   0.00699
  31        4ZZ        -0.00909   0.00366   0.00418  -0.00610   0.00446
  32        4XY        -0.00286   0.00536  -0.00180  -0.00531   0.00199
  33        4XZ         0.00000   0.00000   0.00000   0.00000   0.00000
  34        4YZ         0.00000   0.00000   0.00000   0.00000   0.00000
  35 5   H  1S          0.05126  -0.02395  -0.04271   0.11620  -0.04766
  36        2S          0.00477  -0.00194  -0.01213   0.05736  -0.01786
  37 6   C  1S          0.01252  -0.08987   0.07650   0.04448   0.03055
  38        2S         -0.02569   0.17964  -0.15703  -0.09118  -0.06253
  39        2PX         0.04117  -0.01705  -0.04352   0.13390   0.01920
  40        2PY         0.07912  -0.08203  -0.07546  -0.00793  -0.13777
  41        2PZ         0.00000   0.00000   0.00000   0.00000   0.00000
  42        3S         -0.02225   0.12780  -0.12684  -0.07757  -0.06374
  43        3PX         0.01446  -0.03026  -0.00343   0.04254   0.00854
  44        3PY         0.02992  -0.01612  -0.03345  -0.00986  -0.03241
  45        3PZ         0.00000   0.00000   0.00000   0.00000   0.00000
  46        4XX         0.00515  -0.00280  -0.00655   0.00112  -0.00958
  47        4YY        -0.00323   0.00285   0.00657   0.00024   0.00746
  48        4ZZ         0.00100  -0.00845   0.00646   0.00400   0.00272
  49        4XY         0.00372  -0.00506   0.00188   0.00443  -0.00331
  50        4XZ         0.00000   0.00000   0.00000   0.00000   0.00000
  51        4YZ         0.00000   0.00000   0.00000   0.00000   0.00000
  52 7   H  1S         -0.00694   0.05293  -0.06283  -0.09807  -0.07015
  53        2S         -0.00146   0.00230  -0.01716  -0.05310  -0.04027
  54 8   C  1S          0.07772  -0.07440  -0.06394  -0.01916  -0.08816
  55        2S         -0.15272   0.14948   0.13096   0.03932   0.18070
  56        2PX         0.03255   0.03550  -0.05615   0.09583   0.13215
  57        2PY         0.01030   0.10312  -0.10649  -0.09138  -0.02543
  58        2PZ         0.00000   0.00000   0.00000   0.00000   0.00000
  59        3S         -0.10293   0.09501   0.10709   0.03268   0.17766
  60        3PX        -0.00474   0.03537  -0.01030   0.02730   0.03766
  61        3PY         0.02144   0.02164  -0.04223  -0.03077  -0.01656
  62        3PZ         0.00000   0.00000   0.00000   0.00000   0.00000
  63        4XX        -0.00338  -0.00468   0.00778   0.00292  -0.00053
  64        4YY        -0.00049   0.00322  -0.00714  -0.00154  -0.00217
  65        4ZZ         0.00785  -0.00687  -0.00553  -0.00190  -0.00764
  66        4XY        -0.00076  -0.00601  -0.00019   0.00031  -0.00932
  67        4XZ         0.00000   0.00000   0.00000   0.00000   0.00000
  68        4YZ         0.00000   0.00000   0.00000   0.00000   0.00000
  69 9   H  1S         -0.04414   0.04449   0.05545   0.08190   0.14063
  70        2S         -0.00159   0.00104   0.01561   0.05017   0.06910
  71 10  C  1S          0.07772   0.07440  -0.06394   0.01916   0.08816
  72        2S         -0.15272  -0.14948   0.13096  -0.03932  -0.18070
  73        2PX        -0.03255   0.03550   0.05615   0.09583   0.13215
  74        2PY        -0.01030   0.10312   0.10649  -0.09138  -0.02543
  75        2PZ         0.00000   0.00000   0.00000   0.00000   0.00000
  76        3S         -0.10293  -0.09501   0.10709  -0.03268  -0.17766
  77        3PX         0.00474   0.03537   0.01030   0.02730   0.03766
  78        3PY        -0.02144   0.02164   0.04223  -0.03077  -0.01656
  79        3PZ         0.00000   0.00000   0.00000   0.00000   0.00000
  80        4XX        -0.00338   0.00468   0.00778  -0.00292   0.00053
  81        4YY        -0.00049  -0.00322  -0.00714   0.00154   0.00217
  82        4ZZ         0.00785   0.00687  -0.00553   0.00190   0.00764
  83        4XY        -0.00076   0.00601  -0.00019  -0.00031   0.00932
  84        4XZ         0.00000   0.00000   0.00000   0.00000   0.00000
  85        4YZ         0.00000   0.00000   0.00000   0.00000   0.00000
  86 11  H  1S         -0.04414  -0.04449   0.05545  -0.08190  -0.14063
  87        2S         -0.00159  -0.00104   0.01561  -0.05017  -0.06910
  88 12  C  1S          0.01252   0.08987   0.07650  -0.04448  -0.03055
  89        2S         -0.02569  -0.17964  -0.15703   0.09118   0.06253
  90        2PX        -0.04117  -0.01705   0.04352   0.13390   0.01920
  91        2PY        -0.07912  -0.08203   0.07546  -0.00793  -0.13777
  92        2PZ         0.00000   0.00000   0.00000   0.00000   0.00000
  93        3S         -0.02225  -0.12780  -0.12684   0.07757   0.06374
  94        3PX        -0.01446  -0.03026   0.00343   0.04254   0.00854
  95        3PY        -0.02992  -0.01612   0.03345  -0.00986  -0.03241
  96        3PZ         0.00000   0.00000   0.00000   0.00000   0.00000
  97        4XX         0.00515   0.00280  -0.00655  -0.00112   0.00958
  98        4YY        -0.00323  -0.00285   0.00657  -0.00024  -0.00746
  99        4ZZ         0.00100   0.00845   0.00646  -0.00400  -0.00272
 100        4XY         0.00372   0.00506   0.00188  -0.00443   0.00331
 101        4XZ         0.00000   0.00000   0.00000   0.00000   0.00000
 102        4YZ         0.00000   0.00000   0.00000   0.00000   0.00000
 103 13  H  1S         -0.00694  -0.05293  -0.06283   0.09807   0.07015
 104        2S         -0.00146  -0.00230  -0.01716   0.05310   0.04027
 105 14  C  1S         -0.09227  -0.04155   0.04625   0.07102  -0.05296
 106        2S          0.18312   0.08472  -0.09430  -0.14698   0.10909
 107        2PX        -0.00910  -0.04353  -0.05503   0.08190   0.02338
 108        2PY        -0.07293  -0.10159  -0.11448  -0.07805   0.04725
 109        2PZ         0.00000   0.00000   0.00000   0.00000   0.00000
 110        3S          0.12277   0.04643  -0.08367  -0.12903   0.10690
 111        3PX        -0.01591  -0.02495  -0.01056   0.02821   0.00467
 112        3PY        -0.00462  -0.02390  -0.04141  -0.03442   0.01110
 113        3PZ         0.00000   0.00000   0.00000   0.00000   0.00000
 114        4XX        -0.00201  -0.00574  -0.00832  -0.00261   0.00599
 115        4YY         0.00385   0.00347   0.00674   0.00393  -0.00699
 116        4ZZ        -0.00909  -0.00366   0.00418   0.00610  -0.00446
 117        4XY        -0.00286  -0.00536  -0.00180   0.00531  -0.00199
 118        4XZ         0.00000   0.00000   0.00000   0.00000   0.00000
 119        4YZ         0.00000   0.00000   0.00000   0.00000   0.00000
 120 15  H  1S          0.05126   0.02395  -0.04271  -0.11620   0.04766
 121        2S          0.00477   0.00194  -0.01213  -0.05736   0.01786
 122 16  C  1S         -0.10105  -0.09200  -0.08342  -0.05261   0.05686
 123        2S          0.19499   0.17873   0.16651   0.10643  -0.11475
 124        2PX        -0.00033  -0.00903  -0.02076   0.03808   0.01754
 125        2PY         0.05768   0.03008  -0.05844  -0.09300   0.09312
 126        2PZ         0.00000   0.00000   0.00000   0.00000   0.00000
 127        3S          0.15361   0.14516   0.14599   0.09462  -0.11985
 128        3PX         0.00432   0.00571  -0.00613   0.01048   0.00889
 129        3PY         0.00526  -0.00182  -0.02770  -0.03445   0.03134
 130        3PZ         0.00000   0.00000   0.00000   0.00000   0.00000
 131        4XX         0.00126   0.00233   0.00666   0.00757  -0.00716
 132        4YY         0.00451   0.00210  -0.00380  -0.00556   0.00462
 133        4ZZ        -0.01056  -0.00941  -0.00782  -0.00475   0.00508
 134        4XY         0.00004  -0.00047  -0.00062   0.00094   0.00001
 135        4XZ         0.00000   0.00000   0.00000   0.00000   0.00000
 136        4YZ         0.00000   0.00000   0.00000   0.00000   0.00000
 137 17  H  1S          0.05681   0.06191   0.08865   0.05362  -0.07955
 138        2S          0.01369   0.01929   0.03565   0.02449  -0.03623
 139 18  H  1S          0.05640   0.05535   0.07268   0.08533  -0.06448
 140        2S          0.00983   0.00917   0.02655   0.04428  -0.02946
                          16        17        18        19        20
                        (AG)--O   (BU)--O   (AG)--O   (AG)--O   (BU)--O
     Eigenvalues --    -0.55441  -0.47897  -0.45979  -0.45308  -0.41256
   1 1   C  1S         -0.03697  -0.00506  -0.01310  -0.00499  -0.00341
   2        2S          0.07458   0.01227   0.02698   0.01101   0.00658
   3        2PX        -0.06667   0.19066  -0.05541   0.22391   0.14122
   4        2PY         0.08930   0.03774   0.16760   0.12351  -0.19991
   5        2PZ         0.00000   0.00000   0.00000   0.00000   0.00000
   6        3S          0.06926  -0.00874   0.05612  -0.00030   0.01210
   7        3PX        -0.02585   0.07955  -0.01050   0.08326   0.04368
   8        3PY         0.02937   0.02324   0.05527   0.04774  -0.08257
   9        3PZ         0.00000   0.00000   0.00000   0.00000   0.00000
  10        4XX         0.00671   0.00189   0.00853   0.00618  -0.00901
  11        4YY        -0.00499  -0.00129  -0.00422  -0.00321   0.00347
  12        4ZZ        -0.00342  -0.00011  -0.00109  -0.00036  -0.00020
  13        4XY         0.00121   0.00296  -0.00082   0.00656   0.00749
  14        4XZ         0.00000   0.00000   0.00000   0.00000   0.00000
  15        4YZ         0.00000   0.00000   0.00000   0.00000   0.00000
  16 2   H  1S          0.02878   0.10536   0.03745   0.15447   0.01442
  17        2S          0.01590   0.06745   0.02073   0.11406   0.01481
  18 3   H  1S          0.08455  -0.07395   0.08907  -0.06767  -0.13689
  19        2S          0.04638  -0.04652   0.06200  -0.04598  -0.11362
  20 4   C  1S          0.06509   0.00391   0.02372   0.02257   0.00254
  21        2S         -0.13358  -0.01330  -0.05148  -0.04981  -0.00121
  22        2PX        -0.13238   0.19414  -0.07645   0.14728   0.02525
  23        2PY         0.05390  -0.03054  -0.13138  -0.08928   0.21876
  24        2PZ         0.00000   0.00000   0.00000   0.00000   0.00000
  25        3S         -0.13291   0.02710  -0.03649  -0.04323  -0.06307
  26        3PX        -0.03482   0.04344  -0.03333   0.05008   0.03450
  27        3PY         0.02914   0.00503  -0.06455  -0.00703   0.06961
  28        3PZ         0.00000   0.00000   0.00000   0.00000   0.00000
  29        4XX        -0.00103   0.00242   0.00066   0.00591  -0.00539
  30        4YY         0.00223   0.00199   0.00347   0.00032   0.00050
  31        4ZZ         0.00578  -0.00077   0.00146   0.00100   0.00085
  32        4XY         0.00636  -0.00051   0.00473   0.00292   0.00369
  33        4XZ         0.00000   0.00000   0.00000   0.00000   0.00000
  34        4YZ         0.00000   0.00000   0.00000   0.00000   0.00000
  35 5   H  1S         -0.12850   0.09501  -0.02347   0.07415  -0.06013
  36        2S         -0.06958   0.07526  -0.01403   0.06471  -0.05471
  37 6   C  1S         -0.06569   0.00140  -0.01418  -0.03380   0.00076
  38        2S          0.13415  -0.00430   0.03703   0.06919  -0.00535
  39        2PX        -0.11326  -0.07351   0.18582  -0.08371  -0.16981
  40        2PY         0.05822  -0.16101  -0.09768  -0.09200   0.07204
  41        2PZ         0.00000   0.00000   0.00000   0.00000   0.00000
  42        3S          0.15004  -0.01221  -0.03272   0.11290   0.01867
  43        3PX        -0.02810  -0.04833   0.04921  -0.01746  -0.03007
  44        3PY         0.02144  -0.07825   0.00020  -0.05452   0.04199
  45        3PZ         0.00000   0.00000   0.00000   0.00000   0.00000
  46        4XX         0.00067  -0.00288  -0.00609   0.00028   0.00206
  47        4YY        -0.00181   0.00081  -0.00093  -0.00361   0.00257
  48        4ZZ        -0.00577  -0.00019   0.00042  -0.00266  -0.00074
  49        4XY        -0.00642  -0.00007  -0.00158  -0.00610  -0.00796
  50        4XZ         0.00000   0.00000   0.00000   0.00000   0.00000
  51        4YZ         0.00000   0.00000   0.00000   0.00000   0.00000
  52 7   H  1S          0.12170  -0.01289  -0.10190   0.04824   0.11079
  53        2S          0.06577  -0.01311  -0.08123   0.02942   0.09134
  54 8   C  1S          0.03148  -0.00493   0.00348   0.01673  -0.02106
  55        2S         -0.06403   0.01542  -0.01317  -0.03391   0.04140
  56        2PX        -0.03630  -0.09465   0.21886  -0.02507   0.05986
  57        2PY         0.07375   0.15516   0.12048   0.14090  -0.09786
  58        2PZ         0.00000   0.00000   0.00000   0.00000   0.00000
  59        3S         -0.07073  -0.04715   0.03002  -0.07740   0.10187
  60        3PX        -0.01189  -0.00020   0.07458  -0.00020  -0.02657
  61        3PY         0.00789   0.05107   0.08055   0.00959  -0.04712
  62        3PZ         0.00000   0.00000   0.00000   0.00000   0.00000
  63        4XX        -0.00733  -0.00409  -0.00103  -0.00919   0.00218
  64        4YY         0.00653  -0.00176   0.00287   0.00726  -0.00054
  65        4ZZ         0.00284   0.00067  -0.00092   0.00147  -0.00188
  66        4XY        -0.00106  -0.00021  -0.00187   0.00162  -0.00971
  67        4XZ         0.00000   0.00000   0.00000   0.00000   0.00000
  68        4YZ         0.00000   0.00000   0.00000   0.00000   0.00000
  69 9   H  1S         -0.06325  -0.08260   0.06544  -0.07185   0.08743
  70        2S         -0.03633  -0.06485   0.05001  -0.05656   0.07189
  71 10  C  1S          0.03148   0.00493   0.00348   0.01673   0.02106
  72        2S         -0.06403  -0.01542  -0.01317  -0.03391  -0.04140
  73        2PX         0.03630  -0.09465  -0.21886   0.02507   0.05986
  74        2PY        -0.07375   0.15516  -0.12048  -0.14090  -0.09786
  75        2PZ         0.00000   0.00000   0.00000   0.00000   0.00000
  76        3S         -0.07073   0.04715   0.03002  -0.07740  -0.10187
  77        3PX         0.01189  -0.00020  -0.07458   0.00020  -0.02657
  78        3PY        -0.00789   0.05107  -0.08055  -0.00959  -0.04712
  79        3PZ         0.00000   0.00000   0.00000   0.00000   0.00000
  80        4XX        -0.00733   0.00409  -0.00103  -0.00919  -0.00218
  81        4YY         0.00653   0.00176   0.00287   0.00726   0.00054
  82        4ZZ         0.00284  -0.00067  -0.00092   0.00147   0.00188
  83        4XY        -0.00106   0.00021  -0.00187   0.00162   0.00971
  84        4XZ         0.00000   0.00000   0.00000   0.00000   0.00000
  85        4YZ         0.00000   0.00000   0.00000   0.00000   0.00000
  86 11  H  1S         -0.06325   0.08260   0.06544  -0.07185  -0.08743
  87        2S         -0.03633   0.06485   0.05001  -0.05656  -0.07189
  88 12  C  1S         -0.06569  -0.00140  -0.01418  -0.03380  -0.00076
  89        2S          0.13415   0.00430   0.03703   0.06919   0.00535
  90        2PX         0.11326  -0.07351  -0.18582   0.08371  -0.16981
  91        2PY        -0.05822  -0.16101   0.09768   0.09200   0.07204
  92        2PZ         0.00000   0.00000   0.00000   0.00000   0.00000
  93        3S          0.15004   0.01221  -0.03272   0.11290  -0.01867
  94        3PX         0.02810  -0.04833  -0.04921   0.01746  -0.03007
  95        3PY        -0.02144  -0.07825  -0.00020   0.05452   0.04199
  96        3PZ         0.00000   0.00000   0.00000   0.00000   0.00000
  97        4XX         0.00067   0.00288  -0.00609   0.00028  -0.00206
  98        4YY        -0.00181  -0.00081  -0.00093  -0.00361  -0.00257
  99        4ZZ        -0.00577   0.00019   0.00042  -0.00266   0.00074
 100        4XY        -0.00642   0.00007  -0.00158  -0.00610   0.00796
 101        4XZ         0.00000   0.00000   0.00000   0.00000   0.00000
 102        4YZ         0.00000   0.00000   0.00000   0.00000   0.00000
 103 13  H  1S          0.12170   0.01289  -0.10190   0.04824  -0.11079
 104        2S          0.06577   0.01311  -0.08123   0.02942  -0.09134
 105 14  C  1S          0.06509  -0.00391   0.02372   0.02257  -0.00254
 106        2S         -0.13358   0.01330  -0.05148  -0.04981   0.00121
 107        2PX         0.13238   0.19414   0.07645  -0.14728   0.02525
 108        2PY        -0.05390  -0.03054   0.13138   0.08928   0.21876
 109        2PZ         0.00000   0.00000   0.00000   0.00000   0.00000
 110        3S         -0.13291  -0.02710  -0.03649  -0.04323   0.06307
 111        3PX         0.03482   0.04344   0.03333  -0.05008   0.03450
 112        3PY        -0.02914   0.00503   0.06455   0.00703   0.06961
 113        3PZ         0.00000   0.00000   0.00000   0.00000   0.00000
 114        4XX        -0.00103  -0.00242   0.00066   0.00591   0.00539
 115        4YY         0.00223  -0.00199   0.00347   0.00032  -0.00050
 116        4ZZ         0.00578   0.00077   0.00146   0.00100  -0.00085
 117        4XY         0.00636   0.00051   0.00473   0.00292  -0.00369
 118        4XZ         0.00000   0.00000   0.00000   0.00000   0.00000
 119        4YZ         0.00000   0.00000   0.00000   0.00000   0.00000
 120 15  H  1S         -0.12850  -0.09501  -0.02347   0.07415   0.06013
 121        2S         -0.06958  -0.07526  -0.01403   0.06471   0.05471
 122 16  C  1S         -0.03697   0.00506  -0.01310  -0.00499   0.00341
 123        2S          0.07458  -0.01227   0.02698   0.01101  -0.00658
 124        2PX         0.06667   0.19066   0.05541  -0.22391   0.14122
 125        2PY        -0.08930   0.03774  -0.16760  -0.12351  -0.19991
 126        2PZ         0.00000   0.00000   0.00000   0.00000   0.00000
 127        3S          0.06926   0.00874   0.05612  -0.00030  -0.01210
 128        3PX         0.02585   0.07955   0.01050  -0.08326   0.04368
 129        3PY        -0.02937   0.02324  -0.05527  -0.04774  -0.08257
 130        3PZ         0.00000   0.00000   0.00000   0.00000   0.00000
 131        4XX         0.00671  -0.00189   0.00853   0.00618   0.00901
 132        4YY        -0.00499   0.00129  -0.00422  -0.00321  -0.00347
 133        4ZZ        -0.00342   0.00011  -0.00109  -0.00036   0.00020
 134        4XY         0.00121  -0.00296  -0.00082   0.00656  -0.00749
 135        4XZ         0.00000   0.00000   0.00000   0.00000   0.00000
 136        4YZ         0.00000   0.00000   0.00000   0.00000   0.00000
 137 17  H  1S          0.02878  -0.10536   0.03745   0.15447  -0.01442
 138        2S          0.01590  -0.06745   0.02073   0.11406  -0.01481
 139 18  H  1S          0.08455   0.07395   0.08907  -0.06767   0.13689
 140        2S          0.04638   0.04652   0.06200  -0.04598   0.11362
                          21        22        23        24        25
                        (BU)--O   (AG)--O   (AG)--O   (BU)--O   (AU)--O
     Eigenvalues --    -0.40188  -0.38464  -0.38065  -0.36164  -0.33339
   1 1   C  1S          0.01252  -0.01328   0.00935   0.00302   0.00000
   2        2S         -0.02732   0.02759  -0.02095  -0.00607   0.00000
   3        2PX         0.11866   0.16864   0.07443  -0.18023   0.00000
   4        2PY         0.20595  -0.17652   0.08273   0.00471   0.00000
   5        2PZ         0.00000   0.00000   0.00000   0.00000   0.09581
   6        3S         -0.05073   0.05376  -0.03718  -0.01459   0.00000
   7        3PX         0.03568   0.05605   0.02421  -0.05781   0.00000
   8        3PY         0.07780  -0.07452   0.02867  -0.00145   0.00000
   9        3PZ         0.00000   0.00000   0.00000   0.00000   0.05978
  10        4XX         0.00957  -0.00789   0.00398   0.00069   0.00000
  11        4YY        -0.00354   0.00228  -0.00134  -0.00006   0.00000
  12        4ZZ         0.00043  -0.00080   0.00023   0.00025   0.00000
  13        4XY         0.00610   0.01370   0.00429  -0.01814   0.00000
  14        4XZ         0.00000   0.00000   0.00000   0.00000  -0.00065
  15        4YZ         0.00000   0.00000   0.00000   0.00000  -0.00567
  16 2   H  1S          0.12205   0.05300   0.06168  -0.11548   0.00000
  17        2S          0.11397   0.04563   0.06286  -0.11205   0.00000
  18 3   H  1S         -0.00725  -0.14793  -0.02099   0.11664   0.00000
  19        2S          0.00360  -0.14306  -0.00873   0.12427   0.00000
  20 4   C  1S          0.01406   0.00618   0.00783   0.00471   0.00000
  21        2S         -0.03080  -0.00819  -0.01840  -0.01277   0.00000
  22        2PX         0.01561  -0.11655   0.00538   0.22412   0.00000
  23        2PY        -0.19585   0.20039  -0.07410   0.00189   0.00000
  24        2PZ         0.00000   0.00000   0.00000   0.00000   0.15515
  25        3S         -0.02046  -0.05721  -0.01109  -0.02586   0.00000
  26        3PX         0.00349  -0.01642  -0.01011   0.07047   0.00000
  27        3PY        -0.03380   0.05041  -0.01070   0.00518   0.00000
  28        3PZ         0.00000   0.00000   0.00000   0.00000   0.09615
  29        4XX         0.01202  -0.01060   0.00692   0.00450   0.00000
  30        4YY        -0.00662   0.00533  -0.00509  -0.00148   0.00000
  31        4ZZ         0.00070   0.00137   0.00016  -0.00051   0.00000
  32        4XY         0.00038   0.01498  -0.00101  -0.01888   0.00000
  33        4XZ         0.00000   0.00000   0.00000   0.00000  -0.00473
  34        4YZ         0.00000   0.00000   0.00000   0.00000  -0.00022
  35 5   H  1S          0.06106  -0.14849   0.02682   0.13849   0.00000
  36        2S          0.06877  -0.14423   0.04285   0.14554   0.00000
  37 6   C  1S         -0.01964  -0.01517   0.00948   0.02329   0.00000
  38        2S          0.04045   0.03148  -0.02175  -0.05085   0.00000
  39        2PX        -0.03640   0.04455  -0.06377  -0.21454   0.00000
  40        2PY         0.20713  -0.04297   0.23233  -0.02298   0.00000
  41        2PZ         0.00000   0.00000   0.00000   0.00000   0.22751
  42        3S          0.08054   0.05937  -0.04253  -0.09456   0.00000
  43        3PX         0.00666   0.02648  -0.01529  -0.07753   0.00000
  44        3PY         0.04721   0.00512   0.06598  -0.00973   0.00000
  45        3PZ         0.00000   0.00000   0.00000   0.00000   0.14007
  46        4XX         0.01192  -0.00643   0.01188   0.00389   0.00000
  47        4YY        -0.00957   0.00450  -0.00586   0.00063   0.00000
  48        4ZZ        -0.00142  -0.00092   0.00013   0.00084   0.00000
  49        4XY        -0.01008  -0.00085  -0.01248  -0.01025   0.00000
  50        4XZ         0.00000   0.00000   0.00000   0.00000   0.00226
  51        4YZ         0.00000   0.00000   0.00000   0.00000  -0.00745
  52 7   H  1S          0.11538  -0.02586   0.12019   0.09950   0.00000
  53        2S          0.10649  -0.03505   0.13552   0.11085   0.00000
  54 8   C  1S          0.02686  -0.00016   0.01618  -0.01645   0.00000
  55        2S         -0.05746   0.00054  -0.03780   0.03468   0.00000
  56        2PX         0.06288   0.16018   0.18255   0.01134   0.00000
  57        2PY        -0.16712   0.07677  -0.21190  -0.03445   0.00000
  58        2PZ         0.00000   0.00000   0.00000   0.00000   0.25562
  59        3S         -0.09247  -0.00499  -0.04919   0.05228   0.00000
  60        3PX         0.03162   0.05296   0.04818  -0.00502   0.00000
  61        3PY        -0.06103   0.02159  -0.04298  -0.00438   0.00000
  62        3PZ         0.00000   0.00000   0.00000   0.00000   0.15889
  63        4XX         0.00454  -0.00042   0.01611   0.00145   0.00000
  64        4YY         0.00257   0.00109  -0.00852  -0.00210   0.00000
  65        4ZZ         0.00139  -0.00010   0.00006  -0.00103   0.00000
  66        4XY        -0.00142  -0.00548  -0.01619  -0.00968   0.00000
  67        4XZ         0.00000   0.00000   0.00000   0.00000  -0.00474
  68        4YZ         0.00000   0.00000   0.00000   0.00000   0.00437
  69 9   H  1S          0.05962   0.06108   0.17485   0.04645   0.00000
  70        2S          0.05870   0.04573   0.19168   0.04893   0.00000
  71 10  C  1S         -0.02686  -0.00016   0.01618   0.01645   0.00000
  72        2S          0.05746   0.00054  -0.03780  -0.03468   0.00000
  73        2PX         0.06288  -0.16018  -0.18255   0.01134   0.00000
  74        2PY        -0.16712  -0.07677   0.21190  -0.03445   0.00000
  75        2PZ         0.00000   0.00000   0.00000   0.00000   0.25562
  76        3S          0.09247  -0.00499  -0.04919  -0.05228   0.00000
  77        3PX         0.03162  -0.05296  -0.04818  -0.00502   0.00000
  78        3PY        -0.06103  -0.02159   0.04298  -0.00438   0.00000
  79        3PZ         0.00000   0.00000   0.00000   0.00000   0.15889
  80        4XX        -0.00454  -0.00042   0.01611  -0.00145   0.00000
  81        4YY        -0.00257   0.00109  -0.00852   0.00210   0.00000
  82        4ZZ        -0.00139  -0.00010   0.00006   0.00103   0.00000
  83        4XY         0.00142  -0.00548  -0.01619   0.00968   0.00000
  84        4XZ         0.00000   0.00000   0.00000   0.00000   0.00474
  85        4YZ         0.00000   0.00000   0.00000   0.00000  -0.00437
  86 11  H  1S         -0.05962   0.06108   0.17485  -0.04645   0.00000
  87        2S         -0.05870   0.04573   0.19168  -0.04893   0.00000
  88 12  C  1S          0.01964  -0.01517   0.00948  -0.02329   0.00000
  89        2S         -0.04045   0.03148  -0.02175   0.05085   0.00000
  90        2PX        -0.03640  -0.04455   0.06377  -0.21454   0.00000
  91        2PY         0.20713   0.04297  -0.23233  -0.02298   0.00000
  92        2PZ         0.00000   0.00000   0.00000   0.00000   0.22751
  93        3S         -0.08054   0.05937  -0.04253   0.09456   0.00000
  94        3PX         0.00666  -0.02648   0.01529  -0.07753   0.00000
  95        3PY         0.04721  -0.00512  -0.06598  -0.00973   0.00000
  96        3PZ         0.00000   0.00000   0.00000   0.00000   0.14007
  97        4XX        -0.01192  -0.00643   0.01188  -0.00389   0.00000
  98        4YY         0.00957   0.00450  -0.00586  -0.00063   0.00000
  99        4ZZ         0.00142  -0.00092   0.00013  -0.00084   0.00000
 100        4XY         0.01008  -0.00085  -0.01248   0.01025   0.00000
 101        4XZ         0.00000   0.00000   0.00000   0.00000  -0.00226
 102        4YZ         0.00000   0.00000   0.00000   0.00000   0.00745
 103 13  H  1S         -0.11538  -0.02586   0.12019  -0.09950   0.00000
 104        2S         -0.10649  -0.03505   0.13552  -0.11085   0.00000
 105 14  C  1S         -0.01406   0.00618   0.00783  -0.00471   0.00000
 106        2S          0.03080  -0.00819  -0.01840   0.01277   0.00000
 107        2PX         0.01561   0.11655  -0.00538   0.22412   0.00000
 108        2PY        -0.19585  -0.20039   0.07410   0.00189   0.00000
 109        2PZ         0.00000   0.00000   0.00000   0.00000   0.15515
 110        3S          0.02046  -0.05721  -0.01109   0.02586   0.00000
 111        3PX         0.00349   0.01642   0.01011   0.07047   0.00000
 112        3PY        -0.03380  -0.05041   0.01070   0.00518   0.00000
 113        3PZ         0.00000   0.00000   0.00000   0.00000   0.09615
 114        4XX        -0.01202  -0.01060   0.00692  -0.00450   0.00000
 115        4YY         0.00662   0.00533  -0.00509   0.00148   0.00000
 116        4ZZ        -0.00070   0.00137   0.00016   0.00051   0.00000
 117        4XY        -0.00038   0.01498  -0.00101   0.01888   0.00000
 118        4XZ         0.00000   0.00000   0.00000   0.00000   0.00473
 119        4YZ         0.00000   0.00000   0.00000   0.00000   0.00022
 120 15  H  1S         -0.06106  -0.14849   0.02682  -0.13849   0.00000
 121        2S         -0.06877  -0.14423   0.04285  -0.14554   0.00000
 122 16  C  1S         -0.01252  -0.01328   0.00935  -0.00302   0.00000
 123        2S          0.02732   0.02759  -0.02095   0.00607   0.00000
 124        2PX         0.11866  -0.16864  -0.07443  -0.18023   0.00000
 125        2PY         0.20595   0.17652  -0.08273   0.00471   0.00000
 126        2PZ         0.00000   0.00000   0.00000   0.00000   0.09581
 127        3S          0.05073   0.05376  -0.03718   0.01459   0.00000
 128        3PX         0.03568  -0.05605  -0.02421  -0.05781   0.00000
 129        3PY         0.07780   0.07452  -0.02867  -0.00145   0.00000
 130        3PZ         0.00000   0.00000   0.00000   0.00000   0.05978
 131        4XX        -0.00957  -0.00789   0.00398  -0.00069   0.00000
 132        4YY         0.00354   0.00228  -0.00134   0.00006   0.00000
 133        4ZZ        -0.00043  -0.00080   0.00023  -0.00025   0.00000
 134        4XY        -0.00610   0.01370   0.00429   0.01814   0.00000
 135        4XZ         0.00000   0.00000   0.00000   0.00000   0.00065
 136        4YZ         0.00000   0.00000   0.00000   0.00000   0.00567
 137 17  H  1S         -0.12205   0.05300   0.06168   0.11548   0.00000
 138        2S         -0.11397   0.04563   0.06286   0.11205   0.00000
 139 18  H  1S          0.00725  -0.14793  -0.02099  -0.11664   0.00000
 140        2S         -0.00360  -0.14306  -0.00873  -0.12427   0.00000
                          26        27        28        29        30
                        (AG)--O   (BG)--O   (AU)--O   (BG)--O   (AU)--V
     Eigenvalues --    -0.33292  -0.30211  -0.25620  -0.20095  -0.04574
   1 1   C  1S         -0.01021   0.00000   0.00000   0.00000   0.00000
   2        2S          0.02179   0.00000   0.00000   0.00000   0.00000
   3        2PX        -0.11241   0.00000   0.00000   0.00000   0.00000
   4        2PY        -0.09322   0.00000   0.00000   0.00000   0.00000
   5        2PZ         0.00000   0.18834   0.25263  -0.23507   0.24660
   6        3S          0.04561   0.00000   0.00000   0.00000   0.00000
   7        3PX        -0.03293   0.00000   0.00000   0.00000   0.00000
   8        3PY        -0.04971   0.00000   0.00000   0.00000   0.00000
   9        3PZ         0.00000   0.12707   0.19050  -0.20063   0.28919
  10        4XX        -0.00334   0.00000   0.00000   0.00000   0.00000
  11        4YY         0.00051   0.00000   0.00000   0.00000   0.00000
  12        4ZZ        -0.00051   0.00000   0.00000   0.00000   0.00000
  13        4XY        -0.01380   0.00000   0.00000   0.00000   0.00000
  14        4XZ         0.00000  -0.00072   0.00006  -0.00103   0.00185
  15        4YZ         0.00000  -0.00952  -0.00952   0.00513   0.00718
  16 2   H  1S         -0.10030   0.00000   0.00000   0.00000   0.00000
  17        2S         -0.11003   0.00000   0.00000   0.00000   0.00000
  18 3   H  1S          0.05735   0.00000   0.00000   0.00000   0.00000
  19        2S          0.06519   0.00000   0.00000   0.00000   0.00000
  20 4   C  1S          0.01754   0.00000   0.00000   0.00000   0.00000
  21        2S         -0.03738   0.00000   0.00000   0.00000   0.00000
  22        2PX         0.19740   0.00000   0.00000   0.00000   0.00000
  23        2PY         0.12638   0.00000   0.00000   0.00000   0.00000
  24        2PZ         0.00000   0.25189   0.24015  -0.12418  -0.12661
  25        3S         -0.10144   0.00000   0.00000   0.00000   0.00000
  26        3PX         0.08247   0.00000   0.00000   0.00000   0.00000
  27        3PY         0.03249   0.00000   0.00000   0.00000   0.00000
  28        3PZ         0.00000   0.16404   0.16465  -0.08440  -0.15903
  29        4XX        -0.00295   0.00000   0.00000   0.00000   0.00000
  30        4YY         0.00455   0.00000   0.00000   0.00000   0.00000
  31        4ZZ         0.00060   0.00000   0.00000   0.00000   0.00000
  32        4XY        -0.01086   0.00000   0.00000   0.00000   0.00000
  33        4XZ         0.00000  -0.00442   0.00179  -0.00762   0.00948
  34        4YZ         0.00000   0.00388   0.01161  -0.01526   0.01702
  35 5   H  1S          0.06246   0.00000   0.00000   0.00000   0.00000
  36        2S          0.07267   0.00000   0.00000   0.00000   0.00000
  37 6   C  1S          0.00193   0.00000   0.00000   0.00000   0.00000
  38        2S         -0.00603   0.00000   0.00000   0.00000   0.00000
  39        2PX        -0.18817   0.00000   0.00000   0.00000   0.00000
  40        2PY        -0.14953   0.00000   0.00000   0.00000   0.00000
  41        2PZ         0.00000   0.21131  -0.04775   0.25667  -0.26154
  42        3S         -0.01565   0.00000   0.00000   0.00000   0.00000
  43        3PX        -0.05860   0.00000   0.00000   0.00000   0.00000
  44        3PY        -0.05329   0.00000   0.00000   0.00000   0.00000
  45        3PZ         0.00000   0.14269  -0.02626   0.19847  -0.27379
  46        4XX        -0.00311   0.00000   0.00000   0.00000   0.00000
  47        4YY         0.00328   0.00000   0.00000   0.00000   0.00000
  48        4ZZ        -0.00055   0.00000   0.00000   0.00000   0.00000
  49        4XY        -0.01476   0.00000   0.00000   0.00000   0.00000
  50        4XZ         0.00000   0.00581   0.00711  -0.00339  -0.00543
  51        4YZ         0.00000  -0.00026   0.01289  -0.01260  -0.01232
[...]
 ! R10   R(10,11)                1.0911         -DE/DX =    0.0                 !
 ! R11   R(10,12)                1.3557         -DE/DX =    0.0                 !
 ! R12   R(12,13)                1.0909         -DE/DX =    0.0                 !
 ! R13   R(12,14)                1.4478         -DE/DX =    0.0                 !
 ! R14   R(14,15)                1.0906         -DE/DX =    0.0                 !
 ! R15   R(14,16)                1.3441         -DE/DX =    0.0                 !
 ! R16   R(16,17)                1.0855         -DE/DX =    0.0                 !
 ! R17   R(16,18)                1.0877         -DE/DX =    0.0                 !
 ! A1    A(2,1,3)              116.7068         -DE/DX =    0.0                 !
 ! A2    A(2,1,4)              121.7595         -DE/DX =    0.0                 !
 ! A3    A(3,1,4)              121.5337         -DE/DX =    0.0                 !
 ! A4    A(1,4,5)              119.1267         -DE/DX =    0.0                 !
 ! A5    A(1,4,6)              124.5284         -DE/DX =    0.0                 !
 ! A6    A(5,4,6)              116.3449         -DE/DX =    0.0                 !
 ! A7    A(4,6,7)              116.7821         -DE/DX =    0.0                 !
 ! A8    A(4,6,8)              124.2618         -DE/DX =    0.0                 !
 ! A9    A(7,6,8)              118.9561         -DE/DX =    0.0                 !
 ! A10   A(6,8,9)              118.706          -DE/DX =    0.0                 !
 ! A11   A(6,8,10)             124.4812         -DE/DX =    0.0                 !
 ! A12   A(9,8,10)             116.8128         -DE/DX =    0.0                 !
 ! A13   A(8,10,11)            116.8128         -DE/DX =    0.0                 !
 ! A14   A(8,10,12)            124.4812         -DE/DX =    0.0                 !
 ! A15   A(11,10,12)           118.706          -DE/DX =    0.0                 !
 ! A16   A(10,12,13)           118.9561         -DE/DX =    0.0                 !
 ! A17   A(10,12,14)           124.2618         -DE/DX =    0.0                 !
 ! A18   A(13,12,14)           116.7821         -DE/DX =    0.0                 !
 ! A19   A(12,14,15)           116.3449         -DE/DX =    0.0                 !
 ! A20   A(12,14,16)           124.5284         -DE/DX =    0.0                 !
 ! A21   A(15,14,16)           119.1267         -DE/DX =    0.0                 !
 ! A22   A(14,16,17)           121.7595         -DE/DX =    0.0                 !
 ! A23   A(14,16,18)           121.5337         -DE/DX =    0.0                 !
 ! A24   A(17,16,18)           116.7068         -DE/DX =    0.0                 !
 ! D1    D(2,1,4,5)              0.0            -DE/DX =    0.0                 !
 ! D2    D(2,1,4,6)            180.0            -DE/DX =    0.0                 !
 ! D3    D(3,1,4,5)            180.0            -DE/DX =    0.0                 !
 ! D4    D(3,1,4,6)              0.0            -DE/DX =    0.0                 !
 ! D5    D(1,4,6,7)              0.0            -DE/DX =    0.0                 !
 ! D6    D(1,4,6,8)            180.0            -DE/DX =    0.0                 !
 ! D7    D(5,4,6,7)            180.0            -DE/DX =    0.0                 !
 ! D8    D(5,4,6,8)              0.0            -DE/DX =    0.0                 !
 ! D9    D(4,6,8,9)              0.0            -DE/DX =    0.0                 !
 ! D10   D(4,6,8,10)           180.0            -DE/DX =    0.0                 !
 ! D11   D(7,6,8,9)            180.0            -DE/DX =    0.0                 !
 ! D12   D(7,6,8,10)             0.0            -DE/DX =    0.0                 !
 ! D13   D(6,8,10,11)            0.0            -DE/DX =    0.0                 !
 ! D14   D(6,8,10,12)          180.0            -DE/DX =    0.0                 !
 ! D15   D(9,8,10,11)          180.0            -DE/DX =    0.0                 !
 ! D16   D(9,8,10,12)            0.0            -DE/DX =    0.0                 !
 ! D17   D(8,10,12,13)           0.0            -DE/DX =    0.0                 !
 ! D18   D(8,10,12,14)         180.0            -DE/DX =    0.0                 !
 ! D19   D(11,10,12,13)        180.0            -DE/DX =    0.0                 !
 ! D20   D(11,10,12,14)          0.0            -DE/DX =    0.0                 !
 ! D21   D(10,12,14,15)          0.0            -DE/DX =    0.0                 !
 ! D22   D(10,12,14,16)        180.0            -DE/DX =    0.0                 !
 ! D23   D(13,12,14,15)        180.0            -DE/DX =    0.0                 !
 ! D24   D(13,12,14,16)          0.0            -DE/DX =    0.0                 !
 ! D25   D(12,14,16,17)        180.0            -DE/DX =    0.0                 !
 ! D26   D(12,14,16,18)          0.0            -DE/DX =    0.0                 !
 ! D27   D(15,14,16,17)          0.0            -DE/DX =    0.0                 !
 ! D28   D(15,14,16,18)        180.0            -DE/DX =    0.0                 !
 --------------------------------------------------------------------------------
 GradGradGradGradGradGradGradGradGradGradGradGradGradGradGradGradGradGrad

 1\1\GINC-STUDENT-LENOVO-S510\Freq\RB3LYP\6-31G(d)\C8H10\STUDENT\02-Mar
 -2021\0\\#N Geom=AllCheck Guess=TCheck SCRF=Check GenChk RB3LYP/6-31G(
 d) Freq\\Title Card Required\\0,1\C,-0.2301185615,-4.3084516741,0.\H,0
 .3263913881,-5.2404896579,0.\H,-1.3150174484,-4.3868680189,0.\C,0.3884
 135505,-3.1151601811,0.\H,1.4785398319,-3.0822892356,0.\C,-0.292869774
 1,-1.8377274701,0.\H,-1.3835021654,-1.8622846499,0.\C,0.3366113576,-0.
 6370238566,0.\H,1.4275416148,-0.6172243478,0.\C,-0.3366113576,0.637023
 8566,0.\H,-1.4275416148,0.6172243478,0.\C,0.2928697741,1.8377274701,0.
 \H,1.3835021654,1.8622846499,0.\C,-0.3884135505,3.1151601811,0.\H,-1.4
 785398319,3.0822892356,0.\C,0.2301185615,4.3084516741,0.\H,-0.32639138
 81,5.2404896579,0.\H,1.3150174484,4.3868680189,0.\\Version=EM64L-G09Re
 vC.01\State=1-AG\HF=-310.8056845\RMSD=2.846e-09\RMSF=2.899e-05\ZeroPoi
 nt=0.1528486\Thermal=0.1617063\Dipole=0.,0.,0.\DipoleDeriv=0.1257781,0
 .0956188,0.,-0.0683923,-0.3043551,0.,0.,0.,-0.3136044,0.0032859,0.0674
 366,0.,0.0425587,-0.0893976,0.,0.,0.,0.1365851,-0.1056414,-0.0185703,0
 .,0.0289741,0.0425664,0.,0.,0.,0.1388319,0.091728,-0.3411005,0.,0.0228
 722,0.2549904,0.,0.,0.,-0.0737866,-0.1182672,0.0640157,0.,-0.0349626,0
 .0143885,0.,0.,0.,0.1082419,0.1240113,0.1491029,0.,0.0000575,-0.025860
 3,0.,0.,0.,-0.1082918,-0.1179294,0.0312703,0.,0.0038826,0.011384,0.,0.
 ,0.,0.1123341,0.1130588,-0.1012327,0.,0.0069446,0.0839186,0.,0.,0.,-0.
 1118048,-0.116024,0.0534591,0.,-0.0019348,0.0123652,0.,0.,0.,0.1114947
 ,0.1130588,-0.1012327,0.,0.0069446,0.0839188,0.,0.,0.,-0.1118048,-0.11
 6024,0.0534591,0.,-0.0019348,0.0123652,0.,0.,0.,0.1114947,0.1240113,0.
 1491029,0.,0.0000575,-0.0258603,0.,0.,0.,-0.1082918,-0.1179294,0.03127
 04,0.,0.0038826,0.0113839,0.,0.,0.,0.1123341,0.091728,-0.3411004,0.,0.
 0228722,0.2549904,0.,0.,0.,-0.0737866,-0.1182672,0.0640157,0.,-0.03496
 26,0.0143884,0.,0.,0.,0.1082419,0.1257781,0.0956188,0.,-0.0683923,-0.3
 043551,0.,0.,0.,-0.3136044,0.0032859,0.0674366,0.,0.0425587,-0.0893976
 ,0.,0.,0.,0.1365851,-0.1056414,-0.0185703,0.,0.0289741,0.0425663,0.,0.
 ,0.,0.1388319\Polar=75.2346055,20.8400984,265.9842541,0.,0.,29.1986486
 \PG=C02H [SGH(C8H10)]\NImag=0\\0.68295213,0.06960411,0.80196822,0.,0.,
 0.10124366,-0.13892641,0.13113435,0.,0.13730258,0.12656974,-0.26585441
 ,0.,-0.13740657,0.28267303,0.,0.,-0.03123056,0.,0.,0.02132512,-0.33750
 277,-0.01725411,0.,-0.01073737,-0.00289054,0.,0.35889231,-0.01366369,-
 0.06095937,0.,0.02475777,0.00488039,0.,0.02154232,0.05615882,0.,0.,-0.
 03325196,0.,0.,0.00220330,0.,0.,0.02188193,-0.21175741,-0.17925391,0.,
 0.01149942,0.01733324,0.,-0.01304637,-0.03019844,0.,0.69763626,-0.1641
 6793,-0.42689015,0.,-0.01564624,-0.01984289,0.,-0.00008514,0.00270163,
 0.,0.10456421,0.75764030,0.,0.,-0.04915303,0.,0.,0.00410929,0.,0.,0.00
 463777,0.,0.,0.13207785,-0.01291588,0.00054865,0.,0.00131766,-0.000147
 50,0.,0.00039484,-0.00211197,0.,-0.32665244,-0.00661353,0.,0.35061997,
 -0.03134976,0.00163317,0.,0.00022907,0.00107575,0.,-0.00240210,-0.0043
 1386,0.,-0.00542705,-0.05874075,0.,0.00806353,0.06116142,0.,0.,0.00513
 184,0.,0.,-0.00699112,0.,0.,0.01113100,0.,0.,-0.04173323,0.,0.,0.02736
 922,0.01682243,-0.01129315,0.,-0.00162005,-0.00444738,0.,0.00102136,-0
 .00171008,0.,-0.15860712,0.08089746,0.,-0.01464844,0.02883274,0.,0.690
 66435,0.00285408,-0.05835403,0.,-0.00210834,-0.00201327,0.,0.00226717,
 0.00180350,0.,0.08305871,-0.20275243,0.,-0.00154638,0.00216819,0.,0.08
 345951,0.74034760,0.,0.,0.00635076,0.,0.,0.01184071,0.,0.,-0.00748373,
 0.,0.,-0.06162313,0.,0.,0.00298107,0.,0.,0.12955914,0.00109425,-0.0011
 4413,0.,0.00037326,0.00011221,0.,0.00057288,0.00087758,0.,-0.01405232,
 -0.00185642,0.,-0.00019534,0.00208551,0.,-0.32549760,-0.00579996,0.,0.
 35027443,0.00106205,0.00172530,0.,-0.00040258,0.00016935,0.,-0.0010344
 9,-0.00025549,0.,0.02864210,0.00242887,0.,0.00225955,-0.00440573,0.,-0
 .00450284,-0.05934495,0.,0.00657369,0.06053632,0.,0.,-0.00149834,0.,0.
 ,-0.00027683,0.,0.,0.00029223,0.,0.,0.00291388,0.,0.,0.00357806,0.,0.,
 -0.03948868,0.,0.,0.02547730,-0.00230330,0.00653468,0.,0.00090796,0.00
 124188,0.,0.00043383,0.00013868,0.,0.01569686,0.00744993,0.,0.00077101
 ,0.00144442,0.,-0.20966154,-0.15949740,0.,-0.01445090,-0.03005179,0.,0
 .69225701,0.00936879,0.01199977,0.,-0.00036320,-0.00073800,0.,-0.00035
 841,-0.00011996,0.,-0.01092779,-0.06391644,0.,-0.00165365,0.00177594,0
 .,-0.15687648,-0.36985511,0.,0.00019844,0.00234341,0.,0.07985832,0.741
 41034,0.,0.,0.00245355,0.,0.,0.00020258,0.,0.,-0.00004200,0.,0.,0.0045
 3099,0.,0.,-0.00158111,0.,0.,-0.05317078,0.,0.,0.00495214,0.,0.,0.1305
 2930,0.00046091,-0.00025737,0.,-0.00001051,-0.00007831,0.,0.00003061,0
 .00024727,0.,0.00083654,0.00222273,0.,0.00072300,-0.00096432,0.,-0.014
 80944,0.00007159,0.,-0.00011858,-0.00214544,0.,-0.32463014,-0.00455695
 ,0.,0.34977222,0.00021309,-0.00004480,0.,0.00008807,0.00000956,0.,0.00
 023141,0.00007935,0.,-0.00195358,0.00137014,0.,0.00098093,-0.00027120,
 0.,-0.03009530,0.00236089,0.,-0.00212503,-0.00434077,0.,-0.00345292,-0
 .05955108,0.,0.00529503,0.06101790,0.,0.,0.00010063,0.,0.,0.00016273,0
 .,0.,0.00033365,0.,0.,-0.00629567,0.,0.,0.00023021,0.,0.,0.00490369,0.
 ,0.,0.00946815,0.,0.,-0.04008782,0.,0.,0.02610161,0.00199789,-0.000659
 56,0.,-0.00018957,-0.00040748,0.,-0.00005417,0.00008536,0.,-0.00399031
 ,-0.00445808,0.,0.00061463,-0.00014509,0.,0.01634167,-0.01041730,0.,0.
 00083434,-0.00183684,0.,-0.16053745,0.08539864,0.,-0.01403781,0.028774
 57,0.,0.69225701,-0.00233211,-0.00744096,0.,-0.00025284,-0.00019075,0.
 ,0.00008314,0.00003345,0.,-0.00472548,0.01503402,0.,0.00033795,-0.0001
 2243,0.,0.00606840,-0.06753191,0.,0.00218640,0.00145458,0.,0.08539864,
 -0.20693727,0.,-0.00145317,0.00235240,0.,0.07985832,0.74141034,0.,0.,0
 .00000150,0.,0.,-0.00151975,0.,0.,0.00034129,0.,0.,0.01175325,0.,0.,-0
 .00020845,0.,0.,0.00484199,0.,0.,-0.00619453,0.,0.,-0.05965156,0.,0.,0
 .00284941,0.,0.,0.13052930,-0.00010483,0.00012048,0.,0.00001197,0.0000
 2047,0.,0.00001248,0.00002837,0.,0.00059265,0.00028468,0.,0.00005479,-
 0.00024870,0.,0.00075820,-0.00159759,0.,0.00068043,0.00092245,0.,-0.01
 403781,-0.00145317,0.,-0.00022249,0.00208879,0.,-0.32463014,-0.0045569
 5,0.,0.34977222,-0.00008255,-0.00004902,0.,-0.00000386,0.00001483,0.,-
 0.00002143,-0.00004977,0.,-0.00015953,-0.00012224,0.,-0.00025848,0.000
 08206,0.,0.00144379,0.00176851,0.,-0.00096299,-0.00028855,0.,0.0287745
 7,0.00235240,0.,0.00208879,-0.00433822,0.,-0.00345292,-0.05955108,0.,0
 .00529503,0.06101790,0.,0.,-0.00003462,0.,0.,0.00002519,0.,0.,0.000005
 12,0.,0.,-0.00023551,0.,0.,0.00009108,0.,0.,-0.00169379,0.,0.,0.000259
 52,0.,0.,0.00284941,0.,0.,0.00381644,0.,0.,-0.04008782,0.,0.,0.0261016
 1,-0.00027275,0.00162861,0.,0.00008624,0.00016825,0.,-0.00000418,-0.00
 000606,0.,0.00227321,-0.00124712,0.,-0.00015073,-0.00007854,0.,-0.0031
 6558,0.00760339,0.,0.00046996,0.00015479,0.,0.01634167,0.00606840,0.,0
 .00075820,0.00144379,0.,-0.20966154,-0.15687648,0.,-0.01480944,-0.0300
 9530,0.,0.69066435,0.00214787,0.00354849,0.,0.00001389,-0.00011940,0.,
 -0.00009352,0.00002688,0.,-0.00010346,-0.00899786,0.,0.00003581,-0.000
 02336,0.,0.00760339,0.01706072,0.,-0.00034808,-0.00009246,0.,-0.010417
 30,-0.06753191,0.,-0.00159759,0.00176851,0.,-0.15949740,-0.36985511,0.
 ,0.00007159,0.00236089,0.,0.08345951,0.74034760,0.,0.,-0.00011252,0.,0
 .,-0.00006702,0.,0.,0.00003478,0.,0.,0.00030504,0.,0.,-0.00002365,0.,0
 .,0.00289817,0.,0.,-0.00005205,0.,0.,0.00484199,0.,0.,-0.00169379,0.,0
 .,-0.05317078,0.,0.,0.00490369,0.,0.,0.12955914,-0.00001369,-0.0000496
 7,0.,-0.00000220,-0.00000660,0.,0.00000500,0.00000511,0.,-0.00003708,0
 .00003316,0.,0.00001438,-0.00002492,0.,0.00046996,-0.00034808,0.,0.000
 04879,0.00024571,0.,0.00083434,0.00218640,0.,0.00068043,-0.00096299,0.
 ,-0.01445090,0.00019844,0.,-0.00011858,-0.00212503,0.,-0.32549760,-0.0
 0579996,0.,0.35027443,0.00001036,0.00002159,0.,-0.00000007,0.00000034,
 0.,0.00000590,0.00000991,0.,0.00006342,0.00001374,0.,0.00003403,-0.000
 05037,0.,0.00015479,-0.00009246,0.,0.00024571,0.00007488,0.,-0.0018368
 4,0.00145458,0.,0.00092245,-0.00028855,0.,-0.03005179,0.00234341,0.,-0
 .00214544,-0.00434077,0.,-0.00450284,-0.05934495,0.,0.00657369,0.06053
 632,0.,0.,0.00001415,0.,0.,-0.00008122,0.,0.,0.00001726,0.,0.,0.000260
 98,0.,0.,0.00001062,0.,0.,-0.00005205,0.,0.,0.00034736,0.,0.,-0.006194
 53,0.,0.,0.00025952,0.,0.,0.00495214,0.,0.,0.00946815,0.,0.,-0.0394886
 8,0.,0.,0.02547730,0.00050715,-0.00032552,0.,-0.00003586,-0.00011112,0
 .,-0.00002328,0.00000983,0.,-0.00096165,-0.00047077,0.,0.00012175,-0.0
 0001486,0.,0.00227321,-0.00010346,0.,-0.00003708,0.00006342,0.,-0.0039
 9031,-0.00472548,0.,0.00059265,-0.00015953,0.,0.01569686,-0.01092779,0
 .,0.00083654,-0.00195358,0.,-0.15860712,0.08305871,0.,-0.01405232,0.02
 864210,0.,0.69763626,-0.00090448,-0.00179671,0.,-0.00003404,0.00001607
 ,0.,0.00004130,-0.00000586,0.,-0.00047077,0.00382276,0.,-0.00000973,0.
 00003780,0.,-0.00124712,-0.00899786,0.,0.00003316,0.00001374,0.,-0.004
 45808,0.01503402,0.,0.00028468,-0.00012224,0.,0.00744993,-0.06391644,0
 .,0.00222273,0.00137014,0.,0.08089746,-0.20275243,0.,-0.00185642,0.002
 42887,0.,0.10456421,0.75764030,0.,0.,-0.00002044,0.,0.,0.00033546,0.,0
 .,-0.00011382,0.,0.,-0.00176760,0.,0.,0.00001793,0.,0.,0.00030504,0.,0
 .,0.00026098,0.,0.,0.01175325,0.,0.,-0.00023551,0.,0.,0.00453099,0.,0.
 ,-0.00629567,0.,0.,-0.06162313,0.,0.,0.00291388,0.,0.,0.13207785,-0.00
 006572,0.00006848,0.,0.00000460,0.00001344,0.,0.00000626,0.00000029,0.
 ,0.00012175,-0.00000973,0.,-0.00001434,-0.00000142,0.,-0.00015073,0.00
 003581,0.,0.00001438,0.00003403,0.,0.00061463,0.00033795,0.,0.00005479
 ,-0.00025848,0.,0.00077101,-0.00165365,0.,0.00072300,0.00098093,0.,-0.
 01464844,-0.00154638,0.,-0.00019534,0.00225955,0.,-0.32665244,-0.00661
 353,0.,0.35061997,0.00000419,-0.00001317,0.,-0.00000102,0.00000135,0.,
 -0.00000168,-0.00000314,0.,-0.00001486,0.00003780,0.,-0.00000142,0.000
 00835,0.,-0.00007854,-0.00002336,0.,-0.00002492,-0.00005037,0.,-0.0001
 4509,-0.00012243,0.,-0.00024870,0.00008206,0.,0.00144442,0.00177594,0.
 ,-0.00096432,-0.00027120,0.,0.02883274,0.00216819,0.,0.00208551,-0.004
 40573,0.,-0.00542705,-0.05874075,0.,0.00806353,0.06116142,0.,0.,-0.000
 01435,0.,0.,0.00000042,0.,0.,0.00000555,0.,0.,0.00001793,0.,0.,0.00000
 492,0.,0.,-0.00002365,0.,0.,0.00001062,0.,0.,-0.00020845,0.,0.,0.00009
 108,0.,0.,-0.00158111,0.,0.,0.00023021,0.,0.,0.00298107,0.,0.,0.003578
 06,0.,0.,-0.04173323,0.,0.,0.02736922,0.00001191,0.00062770,0.,0.00001
 983,0.00004304,0.,-0.00000375,-0.00000450,0.,0.00050715,-0.00090448,0.
 ,-0.00006572,0.00000419,0.,-0.00027275,0.00214787,0.,-0.00001369,0.000
 01036,0.,0.00199789,-0.00233211,0.,-0.00010483,-0.00008255,0.,-0.00230
 330,0.00936879,0.,0.00046091,0.00021309,0.,0.01682243,0.00285408,0.,0.
 00109425,0.00106205,0.,-0.21175741,-0.16416793,0.,-0.01291588,-0.03134
 976,0.,0.68295213,0.00062770,0.00056335,0.,-0.00000145,-0.00006761,0.,
 -0.00002819,0.00001033,0.,-0.00032552,-0.00179671,0.,0.00006848,-0.000
 01317,0.,0.00162861,0.00354849,0.,-0.00004967,0.00002159,0.,-0.0006595
 6,-0.00744096,0.,0.00012048,-0.00004902,0.,0.00653468,0.01199977,0.,-0
 .00025737,-0.00004480,0.,-0.01129315,-0.05835403,0.,-0.00114413,0.0017
 2530,0.,-0.17925391,-0.42689015,0.,0.00054865,0.00163317,0.,0.06960411
 ,0.80196822,0.,0.,0.00003253,0.,0.,-0.00000272,0.,0.,-0.00001008,0.,0.
 ,-0.00002044,0.,0.,-0.00001435,0.,0.,-0.00011252,0.,0.,0.00001415,0.,0
 .,0.00000150,0.,0.,-0.00003462,0.,0.,0.00245355,0.,0.,0.00010063,0.,0.
 ,0.00635076,0.,0.,-0.00149834,0.,0.,-0.04915303,0.,0.,0.00513184,0.,0.
 ,0.10124366,0.00001983,-0.00000145,0.,-0.00000175,-0.00000334,0.,0.000
 00021,0.00000040,0.,-0.00003586,-0.00003404,0.,0.00000460,-0.00000102,
 0.,0.00008624,0.00001389,0.,-0.00000220,-0.00000007,0.,-0.00018957,-0.
 00025284,0.,0.00001197,-0.00000386,0.,0.00090796,-0.00036320,0.,-0.000
 01051,0.00008807,0.,-0.00162005,-0.00210834,0.,0.00037326,-0.00040258,
 0.,0.01149942,-0.01564624,0.,0.00131766,0.00022907,0.,-0.13892641,0.13
 113435,0.,0.13730258,0.00004304,-0.00006761,0.,-0.00000334,-0.00001660
 ,0.,-0.00000340,0.00000226,0.,-0.00011112,0.00001607,0.,0.00001344,0.0
 0000135,0.,0.00016825,-0.00011940,0.,-0.00000660,0.00000034,0.,-0.0004
 0748,-0.00019075,0.,0.00002047,0.00001483,0.,0.00124188,-0.00073800,0.
 ,-0.00007831,0.00000956,0.,-0.00444738,-0.00201327,0.,0.00011221,0.000
 16935,0.,0.01733324,-0.01984289,0.,-0.00014750,0.00107575,0.,0.1265697
 4,-0.26585441,0.,-0.13740657,0.28267303,0.,0.,-0.00000272,0.,0.,-0.000
 06414,0.,0.,0.00002856,0.,0.,0.00033546,0.,0.,0.00000042,0.,0.,-0.0000
 6702,0.,0.,-0.00008122,0.,0.,-0.00151975,0.,0.,0.00002519,0.,0.,0.0002
 0258,0.,0.,0.00016273,0.,0.,0.01184071,0.,0.,-0.00027683,0.,0.,0.00410
 929,0.,0.,-0.00699112,0.,0.,-0.03123056,0.,0.,0.02132512,-0.00000375,-
 0.00002819,0.,0.00000021,-0.00000340,0.,0.00000211,0.00000176,0.,-0.00
 002328,0.00004130,0.,0.00000626,-0.00000168,0.,-0.00000418,-0.00009352
 ,0.,0.00000500,0.00000590,0.,-0.00005417,0.00008314,0.,0.00001248,-0.0
 0002143,0.,0.00043383,-0.00035841,0.,0.00003061,0.00023141,0.,0.001021
 36,0.00226717,0.,0.00057288,-0.00103449,0.,-0.01304637,-0.00008514,0.,
 0.00039484,-0.00240210,0.,-0.33750277,-0.01725411,0.,-0.01073737,-0.00
 289054,0.,0.35889231,-0.00000450,0.00001033,0.,0.00000040,0.00000226,0
 .,0.00000176,0.00000093,0.,0.00000983,-0.00000586,0.,0.00000029,-0.000
 00314,0.,-0.00000606,0.00002688,0.,0.00000511,0.00000991,0.,0.00008536
 ,0.00003345,0.,0.00002837,-0.00004977,0.,0.00013868,-0.00011996,0.,0.0
 0024727,0.00007935,0.,-0.00171008,0.00180350,0.,0.00087758,-0.00025549
 ,0.,-0.03019844,0.00270163,0.,-0.00211197,-0.00431386,0.,-0.01366369,-
 0.06095937,0.,0.02475777,0.00488039,0.,0.02154232,0.05615882,0.,0.,-0.
 00001008,0.,0.,0.00002856,0.,0.,-0.00001086,0.,0.,-0.00011382,0.,0.,0.
 00000555,0.,0.,0.00003478,0.,0.,0.00001726,0.,0.,0.00034129,0.,0.,0.00
 000512,0.,0.,-0.00004200,0.,0.,0.00033365,0.,0.,-0.00748373,0.,0.,0.00
 029223,0.,0.,0.00463777,0.,0.,0.01113100,0.,0.,-0.03325196,0.,0.,0.002
 20330,0.,0.,0.02188193\\0.00002734,-0.00001826,0.,-0.00000488,0.000012
 77,0.,-0.00001225,0.00001462,0.,-0.00003610,-0.00001946,0.,0.00002498,
 0.00000972,0.,0.00008825,0.00000842,0.,-0.00003686,0.00000023,0.,-0.00
 008025,-0.00002907,0.,0.00004635,-0.00000324,0.,0.00008025,0.00002907,
 0.,-0.00004635,0.00000324,0.,-0.00008825,-0.00000842,0.,0.00003686,-0.
 00000023,0.,0.00003610,0.00001946,0.,-0.00002498,-0.00000972,0.,-0.000
 02734,0.00001826,0.,0.00000488,-0.00001277,0.,0.00001225,-0.00001462,0
 .\\\@


 NO MATTER HOW THIN YOU SLICE IT, IT'S STILL BALONEY

                                   -- ALFRED E. SMITH
 Job cpu time:  0 days  0 hours  1 minutes 15.7 seconds.
 File lengths (MBytes):  RWF=     31 Int=      0 D2E=      0 Chk=      3 Scr=      1
 Normal termination of Gaussian 09 at Tue Mar  2 12:54:41 2021.
