 Entering Gaussian System, Link 0=g09
 Input=octa_1g-cis.com
 Output=octa_1g-cis.log
 Initial command:
 /home/student/g09/l1.exe /home/student/Aniruddha_1811022/Lab_3/Gau-10643.inp -scrdir=/home/student/Aniruddha_1811022/Lab_3/
 Entering Link 1 = /home/student/g09/l1.exe PID=     10645.
  
 Copyright (c) 1988,1990,1992,1993,1995,1998,2003,2009,2011,
            Gaussian, Inc.  All Rights Reserved.
  
 This is part of the Gaussian(R) 09 program.  It is based on
 the Gaussian(R) 03 system (copyright 2003, Gaussian, Inc.),
 the Gaussian(R) 98 system (copyright 1998, Gaussian, Inc.),
 the Gaussian(R) 94 system (copyright 1995, Gaussian, Inc.),
 the Gaussian 92(TM) system (copyright 1992, Gaussian, Inc.),
 the Gaussian 90(TM) system (copyright 1990, Gaussian, Inc.),
 the Gaussian 88(TM) system (copyright 1988, Gaussian, Inc.),
 the Gaussian 86(TM) system (copyright 1986, Carnegie Mellon
 University), and the Gaussian 82(TM) system (copyright 1983,
 Carnegie Mellon University). Gaussian is a federally registered
 trademark of Gaussian, Inc.
  
 This software contains proprietary and confidential information,
 including trade secrets, belonging to Gaussian, Inc.
  
 This software is provided under written license and may be
 used, copied, transmitted, or stored only in accord with that
 written license.
  
 The following legend is applicable only to US Government
 contracts under FAR:
  
                    RESTRICTED RIGHTS LEGEND
  
 Use, reproduction and disclosure by the US Government is
 subject to restrictions as set forth in subparagraphs (a)
 and (c) of the Commercial Computer Software - Restricted
 Rights clause in FAR 52.227-19.
  
 Gaussian, Inc.
 340 Quinnipiac St., Bldg. 40, Wallingford CT 06492
  
  
 ---------------------------------------------------------------
 Warning -- This program may not be used in any manner that
 competes with the business of Gaussian, Inc. or will provide
 assistance to any competitor of Gaussian, Inc.  The licensee
 of this program is prohibited from giving any competitor of
 Gaussian, Inc. access to this program.  By using this program,
 the user acknowledges that Gaussian, Inc. is engaged in the
 business of creating and licensing software in the field of
 computational chemistry and represents and warrants to the
 licensee that it is not a competitor of Gaussian, Inc. and that
 it will not use this program in any manner prohibited above.
 ---------------------------------------------------------------
  

 Cite this work as:
 Gaussian 09, Revision C.01,
 M. J. Frisch, G. W. Trucks, H. B. Schlegel, G. E. Scuseria, 
 M. A. Robb, J. R. Cheeseman, G. Scalmani, V. Barone, B. Mennucci, 
 G. A. Petersson, H. Nakatsuji, M. Caricato, X. Li, H. P. Hratchian, 
 A. F. Izmaylov, J. Bloino, G. Zheng, J. L. Sonnenberg, M. Hada, 
 M. Ehara, K. Toyota, R. Fukuda, J. Hasegawa, M. Ishida, T. Nakajima, 
 Y. Honda, O. Kitao, H. Nakai, T. Vreven, J. A. Montgomery, Jr., 
 J. E. Peralta, F. Ogliaro, M. Bearpark, J. J. Heyd, E. Brothers, 
 K. N. Kudin, V. N. Staroverov, T. Keith, R. Kobayashi, J. Normand, 
 K. Raghavachari, A. Rendell, J. C. Burant, S. S. Iyengar, J. Tomasi, 
 M. Cossi, N. Rega, J. M. Millam, M. Klene, J. E. Knox, J. B. Cross, 
 V. Bakken, C. Adamo, J. Jaramillo, R. Gomperts, R. E. Stratmann, 
 O. Yazyev, A. J. Austin, R. Cammi, C. Pomelli, J. W. Ochterski, 
 R. L. Martin, K. Morokuma, V. G. Zakrzewski, G. A. Voth, 
 P. Salvador, J. J. Dannenberg, S. Dapprich, A. D. Daniels, 
 O. Farkas, J. B. Foresman, J. V. Ortiz, J. Cioslowski, 
 and D. J. Fox, Gaussian, Inc., Wallingford CT, 2010.
 
 ******************************************
 Gaussian 09:  EM64L-G09RevC.01 23-Sep-2011
                 2-Mar-2021 
 ******************************************
 %chk=octa_1g-cis.chk
 -----------------------------------------
 # b3lyp/6-31g* geom=connectivity opt freq
 -----------------------------------------
 1/14=-1,18=20,19=15,26=3,38=1,57=2/1,3;
 2/9=110,12=2,17=6,18=5,40=1/2;
 3/5=1,6=6,7=1,11=2,16=1,25=1,30=1,71=1,74=-5/1,2,3;
 4//1;
 5/5=2,38=5/2;
 6/7=2,8=2,9=2,10=2,28=1/1;
 7//1,2,3,16;
 1/14=-1,18=20,19=15/3(2);
 2/9=110/2;
 99//99;
 2/9=110/2;
 3/5=1,6=6,7=1,11=2,16=1,25=1,30=1,71=1,74=-5/1,2,3;
 4/5=5,16=3/1;
 5/5=2,38=5/2;
 7//1,2,3,16;
 1/14=-1,18=20,19=15/3(-5);
 2/9=110/2;
 6/7=2,8=2,9=2,10=2,19=2,28=1/1;
 99/9=1/99;
 -------------------
 Title Card Required
 -------------------
 Charge =  0 Multiplicity = 1
 Symbolic Z-Matrix:
 C                     0.28227  -4.0534    1.01339 
 H                     0.81021  -4.97967   1.01339 
 H                    -0.3821   -3.82387   1.81628 
 C                     0.45219  -3.16994   0. 
 H                     1.11656  -3.39947  -0.80288 
 C                    -0.30765  -1.8368    0. 
 H                    -0.97202  -1.60727  -0.80288 
 C                    -0.13773  -0.95334   1.01339 
 H                     0.51765  -1.17646   1.80825 
 C                    -0.88468   0.37061   1.02491 
 H                    -1.54006   0.59373   0.23006 
 C                    -0.71476   1.25407   2.03831 
 H                    -0.05039   1.02454   2.84119 
 C                    -1.4746    2.58721   2.03831 
 H                    -2.13897   2.81674   1.23542 
 C                    -1.30468   3.47067   3.0517 
 H                    -1.83262   4.39694   3.0517 
 H                    -0.64031   3.24114   3.85458 
 

 GradGradGradGradGradGradGradGradGradGradGradGradGradGradGradGradGradGrad
 Berny optimization.
 Initialization pass.
                           ----------------------------
                           !    Initial Parameters    !
                           ! (Angstroms and Degrees)  !
 --------------------------                            --------------------------
 ! Name  Definition              Value          Derivative Info.                !
 --------------------------------------------------------------------------------
 ! R1    R(1,2)                  1.0662         estimate D2E/DX2                !
 ! R2    R(1,3)                  1.0671         estimate D2E/DX2                !
 ! R3    R(1,4)                  1.3551         estimate D2E/DX2                !
 ! R4    R(4,5)                  1.0671         estimate D2E/DX2                !
 ! R5    R(4,6)                  1.5345         estimate D2E/DX2                !
 ! R6    R(6,7)                  1.0671         estimate D2E/DX2                !
 ! R7    R(6,8)                  1.3551         estimate D2E/DX2                !
 ! R8    R(8,9)                  1.0541         estimate D2E/DX2                !
 ! R9    R(8,10)                 1.5202         estimate D2E/DX2                !
 ! R10   R(10,11)                1.0541         estimate D2E/DX2                !
 ! R11   R(10,12)                1.3551         estimate D2E/DX2                !
 ! R12   R(12,13)                1.0671         estimate D2E/DX2                !
 ! R13   R(12,14)                1.5345         estimate D2E/DX2                !
 ! R14   R(14,15)                1.0671         estimate D2E/DX2                !
 ! R15   R(14,16)                1.3551         estimate D2E/DX2                !
 ! R16   R(16,17)                1.0662         estimate D2E/DX2                !
 ! R17   R(16,18)                1.0671         estimate D2E/DX2                !
 ! A1    A(2,1,3)              119.6808         estimate D2E/DX2                !
 ! A2    A(2,1,4)              120.2859         estimate D2E/DX2                !
 ! A3    A(3,1,4)              120.0332         estimate D2E/DX2                !
 ! A4    A(1,4,5)              120.0332         estimate D2E/DX2                !
 ! A5    A(1,4,6)              120.2859         estimate D2E/DX2                !
 ! A6    A(5,4,6)              119.6808         estimate D2E/DX2                !
 ! A7    A(4,6,7)              119.6808         estimate D2E/DX2                !
 ! A8    A(4,6,8)              120.2859         estimate D2E/DX2                !
 ! A9    A(7,6,8)              120.0332         estimate D2E/DX2                !
 ! A10   A(6,8,9)              120.2567         estimate D2E/DX2                !
 ! A11   A(6,8,10)             120.7871         estimate D2E/DX2                !
 ! A12   A(9,8,10)             118.9561         estimate D2E/DX2                !
 ! A13   A(8,10,11)            118.9562         estimate D2E/DX2                !
 ! A14   A(8,10,12)            120.7871         estimate D2E/DX2                !
 ! A15   A(11,10,12)           120.2567         estimate D2E/DX2                !
 ! A16   A(10,12,13)           120.0332         estimate D2E/DX2                !
 ! A17   A(10,12,14)           120.2859         estimate D2E/DX2                !
 ! A18   A(13,12,14)           119.6808         estimate D2E/DX2                !
 ! A19   A(12,14,15)           119.6808         estimate D2E/DX2                !
 ! A20   A(12,14,16)           120.2859         estimate D2E/DX2                !
 ! A21   A(15,14,16)           120.0332         estimate D2E/DX2                !
 ! A22   A(14,16,17)           120.2859         estimate D2E/DX2                !
 ! A23   A(14,16,18)           120.0332         estimate D2E/DX2                !
 ! A24   A(17,16,18)           119.6808         estimate D2E/DX2                !
 ! D1    D(2,1,4,5)              0.0            estimate D2E/DX2                !
 ! D2    D(2,1,4,6)            180.0            estimate D2E/DX2                !
 ! D3    D(3,1,4,5)           -180.0            estimate D2E/DX2                !
 ! D4    D(3,1,4,6)              0.0            estimate D2E/DX2                !
 ! D5    D(1,4,6,7)           -120.0            estimate D2E/DX2                !
 ! D6    D(1,4,6,8)             60.0            estimate D2E/DX2                !
 ! D7    D(5,4,6,7)             60.0            estimate D2E/DX2                !
 ! D8    D(5,4,6,8)           -120.0            estimate D2E/DX2                !
 ! D9    D(4,6,8,9)              0.0            estimate D2E/DX2                !
 ! D10   D(4,6,8,10)           180.0            estimate D2E/DX2                !
 ! D11   D(7,6,8,9)            180.0            estimate D2E/DX2                !
 ! D12   D(7,6,8,10)             0.0            estimate D2E/DX2                !
 ! D13   D(6,8,10,11)            0.0            estimate D2E/DX2                !
 ! D14   D(6,8,10,12)          180.0            estimate D2E/DX2                !
 ! D15   D(9,8,10,11)         -180.0            estimate D2E/DX2                !
 ! D16   D(9,8,10,12)            0.0            estimate D2E/DX2                !
 ! D17   D(8,10,12,13)           0.0            estimate D2E/DX2                !
 ! D18   D(8,10,12,14)         180.0            estimate D2E/DX2                !
 ! D19   D(11,10,12,13)        180.0            estimate D2E/DX2                !
 ! D20   D(11,10,12,14)          0.0            estimate D2E/DX2                !
 ! D21   D(10,12,14,15)          0.0            estimate D2E/DX2                !
 ! D22   D(10,12,14,16)        180.0            estimate D2E/DX2                !
 ! D23   D(13,12,14,15)        180.0            estimate D2E/DX2                !
 ! D24   D(13,12,14,16)          0.0            estimate D2E/DX2                !
 ! D25   D(12,14,16,17)        180.0            estimate D2E/DX2                !
 ! D26   D(12,14,16,18)          0.0            estimate D2E/DX2                !
 ! D27   D(15,14,16,17)          0.0            estimate D2E/DX2                !
 ! D28   D(15,14,16,18)        180.0            estimate D2E/DX2                !
 --------------------------------------------------------------------------------
 Trust Radius=3.00D-01 FncErr=1.00D-07 GrdErr=1.00D-06
 Number of steps in this run=     79 maximum allowed number of steps=    108.
 GradGradGradGradGradGradGradGradGradGradGradGradGradGradGradGradGradGrad

                          Input orientation:                          
 ---------------------------------------------------------------------
 Center     Atomic      Atomic             Coordinates (Angstroms)
 Number     Number       Type             X           Y           Z
 ---------------------------------------------------------------------
      1          6           0        0.282273   -4.053396    1.013395
      2          1           0        0.810208   -4.979671    1.013395
      3          1           0       -0.382098   -3.823868    1.816278
      4          6           0        0.452185   -3.169940    0.000000
      5          1           0        1.116556   -3.399468   -0.802883
      6          6           0       -0.307647   -1.836798    0.000000
      7          1           0       -0.972018   -1.607270   -0.802883
      8          6           0       -0.137734   -0.953341    1.013395
      9          1           0        0.517649   -1.176462    1.808248
     10          6           0       -0.884677    0.370612    1.024911
     11          1           0       -1.540059    0.593733    0.230058
     12          6           0       -0.714764    1.254068    2.038306
     13          1           0       -0.050393    1.024540    2.841189
     14          6           0       -1.474596    2.587211    2.038306
     15          1           0       -2.138967    2.816739    1.235423
     16          6           0       -1.304683    3.470667    3.051701
     17          1           0       -1.832619    4.396941    3.051701
     18          1           0       -0.640313    3.241139    3.854584
 ---------------------------------------------------------------------
                    Distance matrix (angstroms):
                    1          2          3          4          5
     1  C    0.000000
     2  H    1.066161   0.000000
     3  H    1.067095   1.844477   0.000000
     4  C    1.355114   2.104822   2.102978   0.000000
     5  H    2.102978   2.426882   3.047308   1.067095   0.000000
     6  C    2.507645   3.486290   2.693113   1.534475   2.261618
     7  H    3.294791   4.224723   3.481569   2.261618   2.752111
     8  C    3.128378   4.136414   2.990696   2.507645   3.294791
     9  H    2.993984   3.896380   2.796134   2.692211   3.481157
    10  C    4.575342   5.612334   4.297966   3.920861   4.643196
    11  H    5.052754   6.099197   4.834477   4.264646   4.906142
    12  C    5.496700   6.498883   5.093663   5.008824   5.751651
    13  H    5.407119   6.334983   4.966643   5.091032   5.849178
    14  C    6.945120   7.970475   6.507287   6.404059   7.115248
    15  H    7.287692   8.338521   6.893594   6.639327   7.307144
    16  C    7.955165   8.946265   7.455715   7.516457   8.241297
    17  H    8.946265   9.952893   8.438720   8.472951   9.183651
    18  H    7.882497   8.818054   7.357696   7.559981   8.299172
                    6          7          8          9         10
     6  C    0.000000
     7  H    1.067095   0.000000
     8  C    1.355114   2.102978   0.000000
     9  H    2.094497   3.036891   1.054088   0.000000
    10  C    2.501212   2.694527   1.520167   2.230151   0.000000
    11  H    2.734821   2.496808   2.230151   3.139815   1.054088
    12  C    3.724767   4.040519   2.501212   2.734821   1.355114
    13  H    4.040519   4.588581   2.694527   2.496808   2.102978
    14  C    5.008824   5.091032   3.920861   4.264646   2.507645
    15  H    5.151253   5.008824   4.274077   4.830258   2.757008
    16  C    6.202914   6.383880   5.008824   5.144209   3.727549
    17  H    7.106189   7.186724   5.971001   6.175173   4.606278
    18  H    6.383880   6.731203   5.091032   5.004355   4.038154
                   11         12         13         14         15
    11  H    0.000000
    12  C    2.094497   0.000000
    13  H    3.036891   1.067095   0.000000
    14  C    2.692211   1.534475   2.261618   0.000000
    15  H    2.512211   2.261618   3.186315   1.067095   0.000000
    16  C    4.036561   2.507645   2.757008   1.355114   2.102978
    17  H    4.744645   3.486290   3.820175   2.104822   2.426882
    18  H    4.577717   2.693113   2.507645   2.102978   3.047308
                   16         17         18
    16  C    0.000000
    17  H    1.066161   0.000000
    18  H    1.067095   1.844477   0.000000
 Stoichiometry    C8H10
 Framework group  C1[X(C8H10)]
 Deg. of freedom    48
 Full point group                 C1      NOp   1
 Largest Abelian subgroup         C1      NOp   1
 Largest concise Abelian subgroup C1      NOp   1
                         Standard orientation:                         
 ---------------------------------------------------------------------
 Center     Atomic      Atomic             Coordinates (Angstroms)
 Number     Number       Type             X           Y           Z
 ---------------------------------------------------------------------
      1          6           0        3.739879    0.864995    0.359144
      2          1           0        4.716115    1.241773    0.154938
      3          1           0        3.124136    1.355610    1.079457
      4          6           0        3.280622   -0.231461   -0.291395
      5          1           0        3.896365   -0.722076   -1.011708
      6          6           0        1.875571   -0.773740    0.002510
      7          1           0        1.759538   -1.768204    0.371658
      8          6           0        0.785583    0.004262   -0.204791
      9          1           0        0.896123    0.987108   -0.569341
     10          6           0       -0.611588   -0.521354    0.082519
     11          1           0       -0.722128   -1.504200    0.447068
     12          6           0       -1.701576    0.256648   -0.124782
     13          1           0       -1.585543    1.251112   -0.493930
     14          6           0       -3.106627   -0.285631    0.169122
     15          1           0       -3.222661   -1.280095    0.538270
     16          6           0       -4.196615    0.492371   -0.038178
     17          1           0       -5.172852    0.115593    0.166028
     18          1           0       -4.080582    1.486835   -0.407327
 ---------------------------------------------------------------------
 Rotational constants (GHZ):     10.5563078      0.6096064      0.5860437
 Standard basis: 6-31G(d) (6D, 7F)
 There are   140 symmetry adapted basis functions of A   symmetry.
 Integral buffers will be    131072 words long.
 Raffenetti 2 integral format.
 Two-electron integral symmetry is turned on.
   140 basis functions,   264 primitive gaussians,   140 cartesian basis functions
    29 alpha electrons       29 beta electrons
       nuclear repulsion energy       296.7599095006 Hartrees.
 NAtoms=   18 NActive=   18 NUniq=   18 SFac= 1.00D+00 NAtFMM=   60 NAOKFM=F Big=F
 One-electron integrals computed using PRISM.
 NBasis=   140 RedAO= T  NBF=   140
 NBsUse=   140 1.00D-06 NBFU=   140
 Harris functional with IExCor=  402 diagonalized for initial guess.
 ExpMin= 1.61D-01 ExpMax= 3.05D+03 ExpMxC= 4.57D+02 IAcc=1 IRadAn=         1 AccDes= 0.00D+00
 HarFok:  IExCor=  402 AccDes= 0.00D+00 IRadAn=         1 IDoV= 1
 ScaDFX=  1.000000  1.000000  1.000000  1.000000
 FoFCou: FMM=F IPFlag=           0 FMFlag=      100000 FMFlg1=           0
         NFxFlg=           0 DoJE=T BraDBF=F KetDBF=T FulRan=T
         Omega=  0.000000  0.000000  1.000000  0.000000  0.000000 ICntrl=     500 IOpCl=  0
         NMat0=    1 NMatS0=    1 NMatT0=    0 NMatD0=    1 NMtDS0=    0 NMtDT0=    0
         I1Cent=           4 NGrid=           0.
 Petite list used in FoFCou.
 Initial guess orbital symmetries:
       Occupied  (A) (A) (A) (A) (A) (A) (A) (A) (A) (A) (A) (A)
                 (A) (A) (A) (A) (A) (A) (A) (A) (A) (A) (A) (A)
                 (A) (A) (A) (A) (A)
       Virtual   (A) (A) (A) (A) (A) (A) (A) (A) (A) (A) (A) (A)
                 (A) (A) (A) (A) (A) (A) (A) (A) (A) (A) (A) (A)
                 (A) (A) (A) (A) (A) (A) (A) (A) (A) (A) (A) (A)
                 (A) (A) (A) (A) (A) (A) (A) (A) (A) (A) (A) (A)
                 (A) (A) (A) (A) (A) (A) (A) (A) (A) (A) (A) (A)
                 (A) (A) (A) (A) (A) (A) (A) (A) (A) (A) (A) (A)
                 (A) (A) (A) (A) (A) (A) (A) (A) (A) (A) (A) (A)
                 (A) (A) (A) (A) (A) (A) (A) (A) (A) (A) (A) (A)
                 (A) (A) (A) (A) (A) (A) (A) (A) (A) (A) (A) (A)
                 (A) (A) (A)
 The electronic state of the initial guess is 1-A.
 Requested convergence on RMS density matrix=1.00D-08 within 128 cycles.
 Requested convergence on MAX density matrix=1.00D-06.
 Requested convergence on             energy=1.00D-06.
 No special actions if energy rises.
 Integral accuracy reduced to 1.0D-05 until final iterations.
 Initial convergence to 1.0D-05 achieved.  Increase integral accuracy.
 SCF Done:  E(RB3LYP) =  -310.779391847     A.U. after   14 cycles
             Convg  =    0.5291D-08             -V/T =  2.0105

 **********************************************************************

            Population analysis using the SCF density.

 **********************************************************************

 Orbital symmetries:
       Occupied  (A) (A) (A) (A) (A) (A) (A) (A) (A) (A) (A) (A)
                 (A) (A) (A) (A) (A) (A) (A) (A) (A) (A) (A) (A)
                 (A) (A) (A) (A) (A)
       Virtual   (A) (A) (A) (A) (A) (A) (A) (A) (A) (A) (A) (A)
                 (A) (A) (A) (A) (A) (A) (A) (A) (A) (A) (A) (A)
                 (A) (A) (A) (A) (A) (A) (A) (A) (A) (A) (A) (A)
                 (A) (A) (A) (A) (A) (A) (A) (A) (A) (A) (A) (A)
                 (A) (A) (A) (A) (A) (A) (A) (A) (A) (A) (A) (A)
                 (A) (A) (A) (A) (A) (A) (A) (A) (A) (A) (A) (A)
                 (A) (A) (A) (A) (A) (A) (A) (A) (A) (A) (A) (A)
                 (A) (A) (A) (A) (A) (A) (A) (A) (A) (A) (A) (A)
                 (A) (A) (A) (A) (A) (A) (A) (A) (A) (A) (A) (A)
                 (A) (A) (A)
 The electronic state is 1-A.
 Alpha  occ. eigenvalues --  -10.19625 -10.19534 -10.19396 -10.19292 -10.19196
 Alpha  occ. eigenvalues --  -10.19172 -10.17931 -10.17866  -0.81089  -0.78572
 Alpha  occ. eigenvalues --   -0.74847  -0.70566  -0.61575  -0.57469  -0.56445
 Alpha  occ. eigenvalues --   -0.54085  -0.48036  -0.46665  -0.44106  -0.42278
 Alpha  occ. eigenvalues --   -0.40242  -0.38939  -0.37884  -0.36107  -0.33168
 Alpha  occ. eigenvalues --   -0.32598  -0.28316  -0.25719  -0.20652
 Alpha virt. eigenvalues --   -0.03822   0.01539   0.04540   0.08644   0.11098
 Alpha virt. eigenvalues --    0.13006   0.13669   0.14628   0.14976   0.15904
 Alpha virt. eigenvalues --    0.16925   0.18561   0.19946   0.20341   0.27397
 Alpha virt. eigenvalues --    0.31396   0.33004   0.34268   0.34524   0.37441
 Alpha virt. eigenvalues --    0.40526   0.49120   0.50262   0.53010   0.54099
 Alpha virt. eigenvalues --    0.55284   0.56425   0.58045   0.59371   0.60567
 Alpha virt. eigenvalues --    0.60858   0.61854   0.64479   0.65269   0.65840
 Alpha virt. eigenvalues --    0.67804   0.68364   0.71293   0.72073   0.81085
 Alpha virt. eigenvalues --    0.83665   0.85273   0.86945   0.87405   0.88691
 Alpha virt. eigenvalues --    0.89458   0.90572   0.91830   0.93756   0.94146
 Alpha virt. eigenvalues --    0.95566   0.98904   1.00657   1.05079   1.06894
 Alpha virt. eigenvalues --    1.09388   1.12741   1.15421   1.23047   1.27299
 Alpha virt. eigenvalues --    1.29903   1.33691   1.35142   1.37975   1.43494
 Alpha virt. eigenvalues --    1.45659   1.49490   1.52495   1.60633   1.63708
 Alpha virt. eigenvalues --    1.71325   1.74727   1.75863   1.78549   1.80264
 Alpha virt. eigenvalues --    1.90174   1.94244   1.98437   1.99496   2.01866
 Alpha virt. eigenvalues --    2.02723   2.08602   2.11920   2.16097   2.19966
 Alpha virt. eigenvalues --    2.20685   2.23903   2.30257   2.31502   2.37039
 Alpha virt. eigenvalues --    2.38975   2.41691   2.42389   2.43178   2.54842
 Alpha virt. eigenvalues --    2.63048   2.71074   2.75181   2.79625   2.83821
 Alpha virt. eigenvalues --    2.88999   3.00132   3.02176   4.06432   4.09438
 Alpha virt. eigenvalues --    4.12091   4.16379   4.21322   4.32349   4.40868
 Alpha virt. eigenvalues --    4.50319
          Condensed to atoms (all electrons):
              1          2          3          4          5          6
     1  C    5.004143   0.363819   0.372542   0.666198  -0.047233  -0.038847
     2  H    0.363819   0.566077  -0.039927  -0.030195  -0.006505   0.005030
     3  H    0.372542  -0.039927   0.553042  -0.037182   0.006042  -0.008397
     4  C    0.666198  -0.030195  -0.037182   4.847600   0.365310   0.375382
     5  H   -0.047233  -0.006505   0.006042   0.365310   0.582254  -0.042869
     6  C   -0.038847   0.005030  -0.008397   0.375382  -0.042869   4.971136
     7  H    0.002305  -0.000166   0.000276  -0.043467   0.000544   0.360454
     8  C   -0.010217   0.000235   0.003987  -0.026003   0.001553   0.625697
     9  H    0.004220  -0.000119   0.000965  -0.005507   0.000252  -0.054222
    10  C    0.000268   0.000001  -0.000132   0.004115  -0.000105  -0.021272
    11  H   -0.000003   0.000000   0.000003   0.000082   0.000002  -0.004086
    12  C   -0.000004   0.000000  -0.000005  -0.000187   0.000002   0.002129
    13  H   -0.000002   0.000000   0.000001  -0.000004   0.000000   0.000391
    14  C    0.000000   0.000000   0.000000   0.000001   0.000000  -0.000183
    15  H    0.000000   0.000000   0.000000   0.000000   0.000000  -0.000003
    16  C    0.000000   0.000000   0.000000   0.000000   0.000000   0.000003
    17  H    0.000000   0.000000   0.000000   0.000000   0.000000   0.000000
    18  H    0.000000   0.000000   0.000000   0.000000   0.000000   0.000000
              7          8          9         10         11         12
     1  C    0.002305  -0.010217   0.004220   0.000268  -0.000003  -0.000004
     2  H   -0.000166   0.000235  -0.000119   0.000001   0.000000   0.000000
     3  H    0.000276   0.003987   0.000965  -0.000132   0.000003  -0.000005
     4  C   -0.043467  -0.026003  -0.005507   0.004115   0.000082  -0.000187
     5  H    0.000544   0.001553   0.000252  -0.000105   0.000002   0.000002
     6  C    0.360454   0.625697  -0.054222  -0.021272  -0.004086   0.002129
     7  H    0.585956  -0.045901   0.006518  -0.009249   0.004542   0.000393
     8  C   -0.045901   4.861375   0.365530   0.390493  -0.047359  -0.015211
     9  H    0.006518   0.365530   0.589032  -0.045708   0.004278  -0.004445
    10  C   -0.009249   0.390493  -0.045708   4.910860   0.367257   0.598838
    11  H    0.004542  -0.047359   0.004278   0.367257   0.598499  -0.054293
    12  C    0.000393  -0.015211  -0.004445   0.598838  -0.054293   4.907495
    13  H    0.000012  -0.008143   0.004046  -0.052415   0.006216   0.365214
    14  C   -0.000003   0.003316   0.000140  -0.016585  -0.008233   0.410598
    15  H    0.000001   0.000152   0.000005  -0.004045   0.003964  -0.045487
    16  C    0.000000  -0.000186  -0.000002   0.001891   0.000380  -0.026434
    17  H    0.000000   0.000002   0.000000  -0.000168  -0.000006   0.003918
    18  H    0.000000  -0.000002   0.000002   0.000456   0.000015  -0.011529
             13         14         15         16         17         18
     1  C   -0.000002   0.000000   0.000000   0.000000   0.000000   0.000000
     2  H    0.000000   0.000000   0.000000   0.000000   0.000000   0.000000
     3  H    0.000001   0.000000   0.000000   0.000000   0.000000   0.000000
     4  C   -0.000004   0.000001   0.000000   0.000000   0.000000   0.000000
     5  H    0.000000   0.000000   0.000000   0.000000   0.000000   0.000000
     6  C    0.000391  -0.000183  -0.000003   0.000003   0.000000   0.000000
     7  H    0.000012  -0.000003   0.000001   0.000000   0.000000   0.000000
     8  C   -0.008143   0.003316   0.000152  -0.000186   0.000002  -0.000002
     9  H    0.004046   0.000140   0.000005  -0.000002   0.000000   0.000002
    10  C   -0.052415  -0.016585  -0.004045   0.001891  -0.000168   0.000456
    11  H    0.006216  -0.008233   0.003964   0.000380  -0.000006   0.000015
    12  C    0.365214   0.410598  -0.045487  -0.026434   0.003918  -0.011529
    13  H    0.593415  -0.044241   0.003855  -0.003676  -0.000015   0.004478
    14  C   -0.044241   4.792915   0.369154   0.630347  -0.023850  -0.035938
    15  H    0.003855   0.369154   0.593651  -0.052370  -0.006657   0.005844
    16  C   -0.003676   0.630347  -0.052370   5.057180   0.365997   0.372620
    17  H   -0.000015  -0.023850  -0.006657   0.365997   0.558898  -0.041084
    18  H    0.004478  -0.035938   0.005844   0.372620  -0.041084   0.562062
 Mulliken atomic charges:
              1
     1  C   -0.317190
     2  H    0.141750
     3  H    0.148785
     4  C   -0.116143
     5  H    0.140753
     6  C   -0.170343
     7  H    0.137784
     8  C   -0.099318
     9  H    0.135017
    10  C   -0.124503
    11  H    0.128744
    12  C   -0.130992
    13  H    0.130867
    14  C   -0.077438
    15  H    0.131935
    16  C   -0.345750
    17  H    0.142964
    18  H    0.143078
 Sum of Mulliken atomic charges =   0.00000
 Mulliken charges with hydrogens summed into heavy atoms:
              1
     1  C   -0.026656
     4  C    0.024610
     6  C   -0.032559
     8  C    0.035698
    10  C    0.004241
    12  C   -0.000125
    14  C    0.054497
    16  C   -0.059708
 Sum of Mulliken charges with hydrogens summed into heavy atoms =   0.00000
 Electronic spatial extent (au):  <R**2>=           1883.3135
 Charge=              0.0000 electrons
 Dipole moment (field-independent basis, Debye):
    X=              0.1003    Y=             -0.1511    Z=             -0.0349  Tot=              0.1847
 Quadrupole moment (field-independent basis, Debye-Ang):
   XX=            -45.1542   YY=            -44.8546   ZZ=            -51.4633
   XY=              0.3280   XZ=             -1.4492   YZ=             -1.4386
 Traceless Quadrupole moment (field-independent basis, Debye-Ang):
   XX=              2.0032   YY=              2.3028   ZZ=             -4.3059
   XY=              0.3280   XZ=             -1.4492   YZ=             -1.4386
 Octapole moment (field-independent basis, Debye-Ang**2):
  XXX=             -0.6677  YYY=             -1.6424  ZZZ=             -0.0508  XYY=             -1.7481
  XXY=              0.9682  XXZ=             -4.3765  XZZ=              3.8711  YZZ=              0.2936
  YYZ=              1.3751  XYZ=              7.2712
 Hexadecapole moment (field-independent basis, Debye-Ang**3):
 XXXX=          -2199.1688 YYYY=           -171.8017 ZZZZ=            -79.3758 XXXY=             26.2740
 XXXZ=            -45.6941 YYYX=             -3.6772 YYYZ=             -4.6366 ZZZX=             -1.8757
 ZZZY=             -0.2559 XXYY=           -401.1986 XXZZ=           -429.8686 YYZZ=            -42.1875
 XXYZ=             -2.3042 YYXZ=              3.9070 ZZXY=              0.9094
 N-N= 2.967599095006D+02 E-N=-1.312041469930D+03  KE= 3.075564837565D+02
 Calling FoFJK, ICntrl=      2127 FMM=F ISym2X=0 I1Cent= 0 IOpClX= 0 NMat=1 NMatS=1 NMatT=0.
 ***** Axes restored to original set *****
 -------------------------------------------------------------------
 Center     Atomic                   Forces (Hartrees/Bohr)
 Number     Number              X              Y              Z
 -------------------------------------------------------------------
      1        6           0.008185452    0.023635465   -0.028637283
      2        1           0.007003150   -0.013366968    0.003305355
      3        1          -0.008679746   -0.000370230    0.010866649
      4        6          -0.033943613    0.014354509    0.029291448
      5        1           0.006846685   -0.002413341   -0.014702128
      6        6           0.035320819   -0.023362831    0.023265422
      7        1          -0.006769719    0.002571500   -0.014336809
      8        6          -0.045392650    0.030395320   -0.037782374
      9        1           0.015419938   -0.002524148    0.018910554
     10        6           0.042585729   -0.033529962    0.037315583
     11        1          -0.014780298    0.002573354   -0.020112887
     12        6          -0.041117090    0.034126942   -0.032863554
     13        1           0.007871544    0.001175248    0.012874330
     14        6           0.039858780   -0.026128054    0.037384516
     15        1          -0.007870625   -0.001424123   -0.013077922
     16        6          -0.006964344   -0.019551485   -0.027240980
     17        1          -0.005415469    0.013480866    0.003439045
     18        1           0.007841457    0.000357938    0.012101035
 -------------------------------------------------------------------
 Cartesian Forces:  Max     0.045392650 RMS     0.022194964

 GradGradGradGradGradGradGradGradGradGradGradGradGradGradGradGradGradGrad
 Berny optimization.
 Internal  Forces:  Max     0.042488577 RMS     0.011130900
 Search for a local minimum.
 Step number   1 out of a maximum of   79
 All quantities printed in internal units (Hartrees-Bohrs-Radians)
 Mixed Optimization -- RFO/linear search
 Second derivative matrix not updated -- first step.
 ITU=  0
 DSYEVD returned Info=          97 IAlg= 4 N=    48 NDim=    48 NE2=      666574 trying DSYEV.
     Eigenvalues ---    0.00310   0.00310   0.00499   0.01500   0.01500
     Eigenvalues ---    0.01500   0.01500   0.01605   0.01605   0.02683
     Eigenvalues ---    0.02683   0.02683   0.02683   0.02683   0.02683
     Eigenvalues ---    0.16000   0.16000   0.16000   0.16000   0.16000
     Eigenvalues ---    0.16000   0.16000   0.16000   0.16000   0.16000
     Eigenvalues ---    0.22000   0.22000   0.22000   0.22000   0.22000
     Eigenvalues ---    0.22000   0.29014   0.29014   0.30350   0.37600
     Eigenvalues ---    0.37600   0.37600   0.37600   0.37600   0.37600
     Eigenvalues ---    0.37719   0.37719   0.39316   0.39316   0.53947
     Eigenvalues ---    0.53947   0.53947   0.53947
 RFO step:  Lambda=-2.57978941D-02 EMin= 3.09906417D-03
 Linear search not attempted -- first point.
 Iteration  1 RMS(Cart)=  0.04971889 RMS(Int)=  0.00123390
 Iteration  2 RMS(Cart)=  0.00186039 RMS(Int)=  0.00000878
 Iteration  3 RMS(Cart)=  0.00000256 RMS(Int)=  0.00000863
 Iteration  4 RMS(Cart)=  0.00000000 RMS(Int)=  0.00000863
 Variable       Old X    -DE/DX   Delta X   Delta X   Delta X     New X
                                 (Linear)    (Quad)   (Total)
    R1        2.01475   0.01508   0.00000   0.03742   0.03742   2.05218
    R2        2.01652   0.01350   0.00000   0.03360   0.03360   2.05011
    R3        2.56079  -0.01809   0.00000  -0.03200  -0.03200   2.52880
    R4        2.01652   0.01584   0.00000   0.03943   0.03943   2.05595
    R5        2.89974  -0.02916   0.00000  -0.09231  -0.09231   2.80743
    R6        2.01652   0.01555   0.00000   0.03871   0.03871   2.05523
    R7        2.56079  -0.00846   0.00000  -0.01496  -0.01496   2.54583
    R8        1.99194   0.02438   0.00000   0.05820   0.05820   2.05013
    R9        2.87270  -0.03592   0.00000  -0.10908  -0.10908   2.76362
   R10        1.99194   0.02490   0.00000   0.05944   0.05944   2.05137
   R11        2.56079  -0.00493   0.00000  -0.00871  -0.00871   2.55208
   R12        2.01652   0.01433   0.00000   0.03567   0.03567   2.05219
   R13        2.89974  -0.04249   0.00000  -0.13448  -0.13448   2.76525
   R14        2.01652   0.01444   0.00000   0.03593   0.03593   2.05244
   R15        2.56079  -0.01305   0.00000  -0.02308  -0.02308   2.53771
   R16        2.01475   0.01439   0.00000   0.03572   0.03572   2.05047
   R17        2.01652   0.01391   0.00000   0.03461   0.03461   2.05113
    A1        2.08882  -0.00420   0.00000  -0.02259  -0.02259   2.06624
    A2        2.09939   0.00211   0.00000   0.01133   0.01133   2.11072
    A3        2.09498   0.00209   0.00000   0.01126   0.01126   2.10623
    A4        2.09498  -0.00188   0.00000  -0.00404  -0.00404   2.09094
    A5        2.09939   0.00923   0.00000   0.03754   0.03754   2.13692
    A6        2.08882  -0.00735   0.00000  -0.03350  -0.03350   2.05532
    A7        2.08882  -0.00687   0.00000  -0.03117  -0.03117   2.05766
    A8        2.09939   0.00882   0.00000   0.03589   0.03589   2.13528
    A9        2.09498  -0.00196   0.00000  -0.00473  -0.00473   2.09025
   A10        2.09888  -0.00198   0.00000  -0.00480  -0.00480   2.09408
   A11        2.10813   0.00890   0.00000   0.03622   0.03622   2.14435
   A12        2.07618  -0.00692   0.00000  -0.03142  -0.03142   2.04476
   A13        2.07618  -0.00751   0.00000  -0.03460  -0.03460   2.04157
   A14        2.10813   0.00886   0.00000   0.03606   0.03606   2.14419
   A15        2.09888  -0.00135   0.00000  -0.00146  -0.00146   2.09742
   A16        2.09498  -0.00038   0.00000   0.00491   0.00491   2.09988
   A17        2.09939   0.01055   0.00000   0.04293   0.04293   2.14231
   A18        2.08882  -0.01018   0.00000  -0.04783  -0.04783   2.04099
   A19        2.08882  -0.01067   0.00000  -0.05026  -0.05026   2.03856
   A20        2.09939   0.01093   0.00000   0.04446   0.04446   2.14385
   A21        2.09498  -0.00026   0.00000   0.00580   0.00580   2.10078
   A22        2.09939   0.00276   0.00000   0.01483   0.01483   2.11421
   A23        2.09498   0.00247   0.00000   0.01330   0.01330   2.10828
   A24        2.08882  -0.00523   0.00000  -0.02813  -0.02813   2.06070
    D1        0.00000   0.00096   0.00000   0.01770   0.01768   0.01768
    D2        3.14159   0.00112   0.00000   0.02175   0.02177  -3.11982
    D3        3.14159   0.00101   0.00000   0.01876   0.01875  -3.12284
    D4        0.00000   0.00118   0.00000   0.02282   0.02284   0.02284
    D5       -2.09440  -0.00200   0.00000  -0.06853  -0.06852  -2.16291
    D6        1.04720  -0.00202   0.00000  -0.06889  -0.06887   0.97833
    D7        1.04720  -0.00184   0.00000  -0.06449  -0.06451   0.98269
    D8       -2.09440  -0.00185   0.00000  -0.06485  -0.06486  -2.15926
    D9        0.00000   0.00094   0.00000   0.01812   0.01813   0.01813
   D10       -3.14159   0.00082   0.00000   0.01523   0.01522  -3.12637
   D11        3.14159   0.00092   0.00000   0.01776   0.01777  -3.12383
   D12        0.00000   0.00080   0.00000   0.01487   0.01486   0.01486
   D13        0.00000   0.00006   0.00000   0.00197   0.00198   0.00198
   D14        3.14159   0.00021   0.00000   0.00554   0.00551  -3.13608
   D15        3.14159  -0.00006   0.00000  -0.00088  -0.00085   3.14074
   D16        0.00000   0.00009   0.00000   0.00269   0.00268   0.00268
   D17        0.00000  -0.00011   0.00000  -0.00238  -0.00239  -0.00239
   D18        3.14159  -0.00013   0.00000  -0.00296  -0.00298   3.13861
   D19        3.14159   0.00004   0.00000   0.00123   0.00125  -3.14034
   D20        0.00000   0.00002   0.00000   0.00065   0.00066   0.00066
   D21        0.00000   0.00001   0.00000   0.00006   0.00005   0.00005
   D22        3.14159  -0.00001   0.00000  -0.00035  -0.00035   3.14125
   D23        3.14159  -0.00002   0.00000  -0.00052  -0.00052   3.14107
   D24        0.00000  -0.00003   0.00000  -0.00092  -0.00092  -0.00092
   D25        3.14159   0.00002   0.00000   0.00047   0.00047  -3.14112
   D26        0.00000   0.00001   0.00000   0.00022   0.00023   0.00023
   D27        0.00000   0.00001   0.00000   0.00006   0.00006   0.00006
   D28        3.14159  -0.00001   0.00000  -0.00018  -0.00018   3.14141
         Item               Value     Threshold  Converged?
 Maximum Force            0.042489     0.000450     NO 
 RMS     Force            0.011131     0.000300     NO 
 Maximum Displacement     0.145803     0.001800     NO 
 RMS     Displacement     0.050506     0.001200     NO 
 Predicted change in Energy=-1.417365D-02
 GradGradGradGradGradGradGradGradGradGradGradGradGradGradGradGradGradGrad

                          Input orientation:                          
 ---------------------------------------------------------------------
 Center     Atomic      Atomic             Coordinates (Angstroms)
 Number     Number       Type             X           Y           Z
 ---------------------------------------------------------------------
      1          6           0        0.286719   -4.009380    1.018335
      2          1           0        0.830114   -4.949502    1.003669
      3          1           0       -0.356127   -3.798397    1.866383
      4          6           0        0.404312   -3.131131    0.015549
      5          1           0        1.039401   -3.364931   -0.836311
      6          6           0       -0.302038   -1.824168    0.014016
      7          1           0       -0.948362   -1.596079   -0.830420
      8          6           0       -0.166160   -0.930315    1.012768
      9          1           0        0.490433   -1.147104    1.848748
     10          6           0       -0.870244    0.351338    1.031918
     11          1           0       -1.525807    0.565560    0.193620
     12          6           0       -0.729133    1.249915    2.030170
     13          1           0       -0.073033    1.038474    2.869315
     14          6           0       -1.432035    2.533262    2.045140
     15          1           0       -2.087219    2.742608    1.204582
     16          6           0       -1.293333    3.427881    3.037007
     17          1           0       -1.828565    4.371602    3.020269
     18          1           0       -0.640620    3.225805    3.880365
 ---------------------------------------------------------------------
                    Distance matrix (angstroms):
                    1          2          3          4          5
     1  C    0.000000
     2  H    1.085966   0.000000
     3  H    1.084874   1.864534   0.000000
     4  C    1.338181   2.112856   2.109288   0.000000
     5  H    2.102749   2.437251   3.072449   1.087964   0.000000
     6  C    2.475973   3.468269   2.707723   1.485626   2.212795
     7  H    3.281363   4.215721   3.531811   2.213995   2.660840
     8  C    3.112197   4.140834   2.998439   2.482635   3.286308
     9  H    2.987258   3.909958   2.783223   2.702665   3.525572
    10  C    4.511609   5.566949   4.263912   3.845139   4.576863
    11  H    4.989538   6.051649   4.817718   4.174039   4.805186
    12  C    5.451235   6.474390   5.064723   4.953480   5.713250
    13  H    5.388541   6.336573   4.947861   5.075179   5.861667
    14  C    6.842121   7.886300   6.424907   6.291006   7.014230
    15  H    7.159583   8.229202   6.798486   6.490173   7.158424
    16  C    7.866667   8.878290   7.380231   7.418345   8.160057
    17  H    8.872600   9.900415   8.381432   8.384813   9.107819
    18  H    7.835757   8.790568   7.312761   7.512612   8.276914
                    6          7          8          9         10
     6  C    0.000000
     7  H    1.087581   0.000000
     8  C    1.347197   2.110076   0.000000
     9  H    2.110134   3.074028   1.084884   0.000000
    10  C    2.468160   2.695708   1.462442   2.182655   0.000000
    11  H    2.690850   2.460648   2.181121   3.120560   1.085540
    12  C    3.700983   4.041129   2.470921   2.695544   1.350503
    13  H    4.049678   4.625484   2.707687   2.477055   2.117481
    14  C    4.938578   5.055120   3.829438   4.156867   2.470429
    15  H    5.045767   4.925692   4.149413   4.710531   2.688682
    16  C    6.140453   6.349502   4.935781   5.052155   3.696552
    17  H    7.053751   7.156520   5.907958   6.099699   4.586331
    18  H    6.369107   6.748094   5.071643   4.952685   4.053263
                   11         12         13         14         15
    11  H    0.000000
    12  C    2.115643   0.000000
    13  H    3.081159   1.085974   0.000000
    14  C    2.703473   1.463309   2.181867   0.000000
    15  H    2.465110   2.180396   3.119672   1.086107   0.000000
    16  C    4.041259   2.464869   2.688218   1.342901   2.111311
    17  H    4.750532   3.454558   3.770202   2.118397   2.453006
    18  H    4.631690   2.708357   2.475641   2.115185   3.079926
                   16         17         18
    16  C    0.000000
    17  H    1.085063   0.000000
    18  H    1.085413   1.861136   0.000000
 Stoichiometry    C8H10
 Framework group  C1[X(C8H10)]
 Deg. of freedom    48
 Full point group                 C1      NOp   1
 Largest Abelian subgroup         C1      NOp   1
 Largest concise Abelian subgroup C1      NOp   1
                         Standard orientation:                         
 ---------------------------------------------------------------------
 Center     Atomic      Atomic             Coordinates (Angstroms)
 Number     Number       Type             X           Y           Z
 ---------------------------------------------------------------------
      1          6           0        3.697601    0.872429    0.327670
      2          1           0        4.693203    1.244945    0.105567
      3          1           0        3.089602    1.418997    1.040798
      4          6           0        3.229905   -0.234303   -0.261512
      5          1           0        3.858339   -0.781126   -0.961312
      6          6           0        1.863961   -0.758177   -0.002983
      7          1           0        1.770163   -1.783111    0.348505
      8          6           0        0.758410   -0.011005   -0.188541
      9          1           0        0.846807    1.006352   -0.554797
     10          6           0       -0.590181   -0.508943    0.079970
     11          1           0       -0.675249   -1.527524    0.445557
     12          6           0       -1.698725    0.238144   -0.111990
     13          1           0       -1.616361    1.256992   -0.478740
     14          6           0       -3.047294   -0.263729    0.154020
     15          1           0       -3.127074   -1.283108    0.520256
     16          6           0       -4.150743    0.477709   -0.035856
     17          1           0       -5.137938    0.077633    0.170899
     18          1           0       -4.079107    1.497198   -0.401411
 ---------------------------------------------------------------------
 Rotational constants (GHZ):     10.8069603      0.6252906      0.6000335
 Standard basis: 6-31G(d) (6D, 7F)
 There are   140 symmetry adapted basis functions of A   symmetry.
 Integral buffers will be    131072 words long.
 Raffenetti 2 integral format.
 Two-electron integral symmetry is turned on.
   140 basis functions,   264 primitive gaussians,   140 cartesian basis functions
    29 alpha electrons       29 beta electrons
       nuclear repulsion energy       299.9219709471 Hartrees.
 NAtoms=   18 NActive=   18 NUniq=   18 SFac= 1.00D+00 NAtFMM=   60 NAOKFM=F Big=F
 One-electron integrals computed using PRISM.
 NBasis=   140 RedAO= T  NBF=   140
 NBsUse=   140 1.00D-06 NBFU=   140
 Initial guess read from the read-write file.
 B after Tr=     0.000000    0.000000    0.000000
         Rot=    1.000000    0.000000    0.000000    0.000000 Ang=   0.00 deg.
 Initial guess orbital symmetries:
       Occupied  (A) (A) (A) (A) (A) (A) (A) (A) (A) (A) (A) (A)
                 (A) (A) (A) (A) (A) (A) (A) (A) (A) (A) (A) (A)
                 (A) (A) (A) (A) (A)
       Virtual   (A) (A) (A) (A) (A) (A) (A) (A) (A) (A) (A) (A)
                 (A) (A) (A) (A) (A) (A) (A) (A) (A) (A) (A) (A)
                 (A) (A) (A) (A) (A) (A) (A) (A) (A) (A) (A) (A)
                 (A) (A) (A) (A) (A) (A) (A) (A) (A) (A) (A) (A)
                 (A) (A) (A) (A) (A) (A) (A) (A) (A) (A) (A) (A)
                 (A) (A) (A) (A) (A) (A) (A) (A) (A) (A) (A) (A)
                 (A) (A) (A) (A) (A) (A) (A) (A) (A) (A) (A) (A)
                 (A) (A) (A) (A) (A) (A) (A) (A) (A) (A) (A) (A)
                 (A) (A) (A) (A) (A) (A) (A) (A) (A) (A) (A) (A)
                 (A) (A) (A)
 Harris functional with IExCor=  402 diagonalized for initial guess.
 ExpMin= 1.61D-01 ExpMax= 3.05D+03 ExpMxC= 4.57D+02 IAcc=1 IRadAn=         1 AccDes= 0.00D+00
 HarFok:  IExCor=  402 AccDes= 0.00D+00 IRadAn=         1 IDoV= 1
 ScaDFX=  1.000000  1.000000  1.000000  1.000000
 FoFCou: FMM=F IPFlag=           0 FMFlag=      100000 FMFlg1=           0
         NFxFlg=           0 DoJE=T BraDBF=F KetDBF=T FulRan=T
         Omega=  0.000000  0.000000  1.000000  0.000000  0.000000 ICntrl=     500 IOpCl=  0
         NMat0=    1 NMatS0=    1 NMatT0=    0 NMatD0=    1 NMtDS0=    0 NMtDT0=    0
         I1Cent=           4 NGrid=           0.
 Petite list used in FoFCou.
 Requested convergence on RMS density matrix=1.00D-08 within 128 cycles.
 Requested convergence on MAX density matrix=1.00D-06.
 Requested convergence on             energy=1.00D-06.
 No special actions if energy rises.
 Integral accuracy reduced to 1.0D-05 until final iterations.
 Initial convergence to 1.0D-05 achieved.  Increase integral accuracy.
 SCF Done:  E(RB3LYP) =  -310.795265229     A.U. after   13 cycles
             Convg  =    0.4600D-08             -V/T =  2.0102
 Calling FoFJK, ICntrl=      2127 FMM=F ISym2X=0 I1Cent= 0 IOpClX= 0 NMat=1 NMatS=1 NMatT=0.
 ***** Axes restored to original set *****
 -------------------------------------------------------------------
 Center     Atomic                   Forces (Hartrees/Bohr)
 Number     Number              X              Y              Z
 -------------------------------------------------------------------
      1        6           0.004377424    0.000730260   -0.003473336
      2        1          -0.000287161   -0.000937499    0.001954737
      3        1          -0.000523724   -0.001715806    0.001359378
      4        6          -0.008344132    0.007120607    0.003660975
      5        1          -0.001332790   -0.001318638   -0.003331274
      6        6           0.010556538   -0.010806338    0.002998145
      7        1           0.001098594    0.001707437   -0.003120612
      8        6          -0.013074753    0.011380179   -0.005343394
      9        1           0.002115713   -0.000981513    0.001352027
     10        6           0.011167502   -0.012249299    0.006815388
     11        1          -0.001885328    0.001268496   -0.001773141
     12        6          -0.010758391    0.011394291   -0.007203848
     13        1           0.001600962   -0.001113599    0.001550408
     14        6           0.008720590   -0.007908589    0.006968627
     15        1          -0.001394975    0.000627280   -0.001658558
     16        6          -0.003001727    0.000396227   -0.004314313
     17        1           0.000719448    0.000929260    0.001865812
     18        1           0.000246209    0.001477243    0.001692978
 -------------------------------------------------------------------
 Cartesian Forces:  Max     0.013074753 RMS     0.005511745

 GradGradGradGradGradGradGradGradGradGradGradGradGradGradGradGradGradGrad
 Berny optimization.
 Using GEDIIS/GDIIS optimizer.
 Internal  Forces:  Max     0.007098913 RMS     0.002680941
 Search for a local minimum.
 Step number   2 out of a maximum of   79
 All quantities printed in internal units (Hartrees-Bohrs-Radians)
 Mixed Optimization -- RFO/linear search
 Update second derivatives using D2CorX and points    1    2
 DE= -1.59D-02 DEPred=-1.42D-02 R= 1.12D+00
 SS=  1.41D+00  RLast= 3.14D-01 DXNew= 5.0454D-01 9.4308D-01
 Trust test= 1.12D+00 RLast= 3.14D-01 DXMaxT set to 5.05D-01
 ITU=  1  0
 Use linear search instead of GDIIS.
     Eigenvalues ---    0.00306   0.00310   0.00499   0.01517   0.01520
     Eigenvalues ---    0.01534   0.01536   0.01620   0.01624   0.02682
     Eigenvalues ---    0.02683   0.02683   0.02683   0.02683   0.02689
     Eigenvalues ---    0.15472   0.16000   0.16000   0.16000   0.16000
     Eigenvalues ---    0.16000   0.16000   0.16000   0.16000   0.16346
     Eigenvalues ---    0.18794   0.22000   0.22000   0.22000   0.22000
     Eigenvalues ---    0.22022   0.28729   0.29304   0.30132   0.37471
     Eigenvalues ---    0.37600   0.37600   0.37600   0.37600   0.37628
     Eigenvalues ---    0.37719   0.38193   0.39315   0.39736   0.53886
     Eigenvalues ---    0.53947   0.53947   0.55646
 RFO step:  Lambda=-3.68946364D-03 EMin= 3.05972650D-03
 Quartic linear search produced a step of  0.24946.
 Iteration  1 RMS(Cart)=  0.08757505 RMS(Int)=  0.02752620
 Iteration  2 RMS(Cart)=  0.05186400 RMS(Int)=  0.00147852
 Iteration  3 RMS(Cart)=  0.00195029 RMS(Int)=  0.00001869
 Iteration  4 RMS(Cart)=  0.00000155 RMS(Int)=  0.00001866
 Iteration  5 RMS(Cart)=  0.00000000 RMS(Int)=  0.00001866
 Variable       Old X    -DE/DX   Delta X   Delta X   Delta X     New X
                                 (Linear)    (Quad)   (Total)
    R1        2.05218   0.00064   0.00934  -0.00528   0.00406   2.05624
    R2        2.05011   0.00104   0.00838  -0.00324   0.00514   2.05526
    R3        2.52880   0.00082  -0.00798   0.00791  -0.00007   2.52873
    R4        2.05595   0.00211   0.00984  -0.00088   0.00895   2.06491
    R5        2.80743  -0.00632  -0.02303  -0.00769  -0.03072   2.77671
    R6        2.05523   0.00213   0.00966  -0.00069   0.00897   2.06420
    R7        2.54583   0.00288  -0.00373   0.00936   0.00563   2.55146
    R8        2.05013   0.00252   0.01452  -0.00355   0.01096   2.06110
    R9        2.76362  -0.00710  -0.02721  -0.00640  -0.03361   2.73001
   R10        2.05137   0.00276   0.01483  -0.00305   0.01178   2.06315
   R11        2.55208   0.00265  -0.00217   0.00767   0.00550   2.55758
   R12        2.05219   0.00238   0.00890   0.00073   0.00963   2.06182
   R13        2.76525  -0.00643  -0.03355   0.00047  -0.03308   2.73218
   R14        2.05244   0.00224   0.00896   0.00023   0.00919   2.06163
   R15        2.53771   0.00110  -0.00576   0.00687   0.00111   2.53882
   R16        2.05047   0.00042   0.00891  -0.00565   0.00326   2.05373
   R17        2.05113   0.00119   0.00863  -0.00294   0.00570   2.05683
    A1        2.06624  -0.00273  -0.00564  -0.01539  -0.02103   2.04520
    A2        2.11072   0.00151   0.00283   0.00873   0.01155   2.12227
    A3        2.10623   0.00123   0.00281   0.00665   0.00945   2.11568
    A4        2.09094  -0.00249  -0.00101  -0.01198  -0.01305   2.07788
    A5        2.13692   0.00607   0.00936   0.02543   0.03474   2.17166
    A6        2.05532  -0.00358  -0.00836  -0.01337  -0.02179   2.03353
    A7        2.05766  -0.00307  -0.00778  -0.01008  -0.01790   2.03976
    A8        2.13528   0.00612   0.00895   0.02607   0.03498   2.17026
    A9        2.09025  -0.00305  -0.00118  -0.01598  -0.01720   2.07305
   A10        2.09408  -0.00320  -0.00120  -0.01853  -0.01975   2.07433
   A11        2.14435   0.00476   0.00903   0.01850   0.02752   2.17186
   A12        2.04476  -0.00156  -0.00784   0.00000  -0.00785   2.03690
   A13        2.04157  -0.00159  -0.00863   0.00065  -0.00798   2.03359
   A14        2.14419   0.00490   0.00899   0.01931   0.02830   2.17249
   A15        2.09742  -0.00331  -0.00036  -0.01994  -0.02031   2.07711
   A16        2.09988  -0.00332   0.00122  -0.02130  -0.02007   2.07981
   A17        2.14231   0.00514   0.01071   0.01913   0.02984   2.17215
   A18        2.04099  -0.00182  -0.01193   0.00217  -0.00976   2.03123
   A19        2.03856  -0.00238  -0.01254  -0.00146  -0.01400   2.02456
   A20        2.14385   0.00521   0.01109   0.01918   0.03027   2.17411
   A21        2.10078  -0.00282   0.00145  -0.01772  -0.01627   2.08451
   A22        2.11421   0.00165   0.00370   0.00901   0.01271   2.12692
   A23        2.10828   0.00115   0.00332   0.00557   0.00889   2.11717
   A24        2.06070  -0.00280  -0.00702  -0.01458  -0.02160   2.03910
    D1        0.01768   0.00041   0.00441   0.01190   0.01632   0.03400
    D2       -3.11982   0.00011   0.00543  -0.01028  -0.00487  -3.12469
    D3       -3.12284   0.00059   0.00468   0.01887   0.02356  -3.09928
    D4        0.02284   0.00030   0.00570  -0.00331   0.00237   0.02521
    D5       -2.16291  -0.00219  -0.01709  -0.29193  -0.30904  -2.47195
    D6        0.97833  -0.00193  -0.01718  -0.27481  -0.29201   0.68632
    D7        0.98269  -0.00248  -0.01609  -0.31368  -0.32976   0.65293
    D8       -2.15926  -0.00223  -0.01618  -0.29656  -0.31272  -2.47198
    D9        0.01813   0.00027   0.00452   0.00082   0.00532   0.02345
   D10       -3.12637   0.00006   0.00380  -0.01067  -0.00685  -3.13322
   D11       -3.12383   0.00053   0.00443   0.01825   0.02266  -3.10117
   D12        0.01486   0.00032   0.00371   0.00676   0.01049   0.02535
   D13        0.00198   0.00016   0.00049   0.00939   0.00991   0.01189
   D14       -3.13608   0.00012   0.00137   0.00483   0.00621  -3.12987
   D15        3.14074  -0.00006  -0.00021  -0.00182  -0.00204   3.13870
   D16        0.00268  -0.00009   0.00067  -0.00638  -0.00574  -0.00306
   D17       -0.00239   0.00003  -0.00060   0.00231   0.00171  -0.00068
   D18        3.13861   0.00007  -0.00074   0.00576   0.00500  -3.13958
   D19       -3.14034  -0.00001   0.00031  -0.00243  -0.00211   3.14074
   D20        0.00066   0.00003   0.00017   0.00101   0.00118   0.00184
   D21        0.00005  -0.00004   0.00001  -0.00315  -0.00314  -0.00309
   D22        3.14125  -0.00002  -0.00009  -0.00174  -0.00183   3.13941
   D23        3.14107   0.00001  -0.00013   0.00018   0.00006   3.14113
   D24       -0.00092   0.00002  -0.00023   0.00159   0.00137   0.00045
   D25       -3.14112  -0.00003   0.00012  -0.00187  -0.00175   3.14031
   D26        0.00023  -0.00002   0.00006  -0.00115  -0.00109  -0.00086
   D27        0.00006  -0.00002   0.00001  -0.00042  -0.00040  -0.00035
   D28        3.14141   0.00000  -0.00005   0.00031   0.00026  -3.14152
         Item               Value     Threshold  Converged?
 Maximum Force            0.007099     0.000450     NO 
 RMS     Force            0.002681     0.000300     NO 
 Maximum Displacement     0.548076     0.001800     NO 
 RMS     Displacement     0.137178     0.001200     NO 
 Predicted change in Energy=-3.610896D-03
 GradGradGradGradGradGradGradGradGradGradGradGradGradGradGradGradGradGrad

                          Input orientation:                          
 ---------------------------------------------------------------------
 Center     Atomic      Atomic             Coordinates (Angstroms)
 Number     Number       Type             X           Y           Z
 ---------------------------------------------------------------------
      1          6           0        0.385703   -3.967609    1.054927
      2          1           0        0.879291   -4.936137    1.006834
      3          1           0       -0.066098   -3.686796    2.003548
      4          6           0        0.326582   -3.157262   -0.008309
      5          1           0        0.757626   -3.491738   -0.955053
      6          6           0       -0.304924   -1.830516   -0.007515
      7          1           0       -0.859267   -1.547077   -0.905034
      8          6           0       -0.225448   -0.949636    1.012638
      9          1           0        0.359591   -1.216142    1.893716
     10          6           0       -0.853703    0.351242    1.019589
     11          1           0       -1.436232    0.615934    0.134961
     12          6           0       -0.763804    1.239977    2.036346
     13          1           0       -0.182968    0.977743    2.921948
     14          6           0       -1.394707    2.540846    2.043864
     15          1           0       -1.973489    2.796796    1.155205
     16          6           0       -1.308956    3.423795    3.052828
     17          1           0       -1.801087    4.391885    3.011403
     18          1           0       -0.739808    3.200131    3.953229
 ---------------------------------------------------------------------
                    Distance matrix (angstroms):
                    1          2          3          4          5
     1  C    0.000000
     2  H    1.088113   0.000000
     3  H    1.087594   1.856894   0.000000
     4  C    1.338144   2.121415   2.117114   0.000000
     5  H    2.098762   2.439281   3.077318   1.092702   0.000000
     6  C    2.484536   3.475076   2.747215   1.469372   2.187807
     7  H    3.354158   4.261872   3.696940   2.191586   2.529536
     8  C    3.079522   4.136747   2.915362   2.494129   3.361625
     9  H    2.876599   3.859406   2.509463   2.717855   3.667732
    10  C    4.493311   5.564154   4.230159   3.841776   4.611299
    11  H    5.017435   6.078429   4.886959   4.167139   4.782689
    12  C    5.422500   6.473334   4.976039   4.970439   5.801064
    13  H    5.316545   6.306349   4.755527   5.093556   5.991002
    14  C    6.819666   7.883640   6.367916   6.296244   7.072348
    15  H    7.164706   8.243702   6.811372   6.488057   7.173411
    16  C    7.841960   8.880484   7.294257   7.440152   8.255814
    17  H    8.859514   9.910334   8.324124   8.404478   9.188650
    18  H    7.813029   8.803498   7.189221   7.566202   8.432950
                    6          7          8          9         10
     6  C    0.000000
     7  H    1.092325   0.000000
     8  C    1.350177   2.106211   0.000000
     9  H    2.105639   3.070527   1.090686   0.000000
    10  C    2.473088   2.703297   1.444657   2.166303   0.000000
    11  H    2.699125   2.468419   2.165023   3.110418   1.091773
    12  C    3.716970   4.053208   2.476330   2.704604   1.353413
    13  H    4.059919   4.634424   2.713311   2.482893   2.112193
    14  C    4.950211   5.068906   3.822834   4.149104   2.477134
    15  H    5.054507   4.935109   4.136632   4.700247   2.693148
    16  C    6.162919   6.369966   4.946036   5.065235   3.712399
    17  H    7.076061   7.176125   5.916887   6.112914   4.603440
    18  H    6.417478   6.793597   5.111967   4.995371   4.090890
                   11         12         13         14         15
    11  H    0.000000
    12  C    2.111126   0.000000
    13  H    3.077153   1.091068   0.000000
    14  C    2.711258   1.445806   2.163940   0.000000
    15  H    2.466921   2.159497   3.104239   1.090969   0.000000
    16  C    4.051448   2.469714   2.695951   1.343488   2.106112
    17  H    4.760761   3.458499   3.779243   2.127821   2.453468
    18  H    4.662858   2.741755   2.512493   2.123493   3.084410
                   16         17         18
    16  C    0.000000
    17  H    1.086787   0.000000
    18  H    1.088428   1.853005   0.000000
 Stoichiometry    C8H10
 Framework group  C1[X(C8H10)]
 Deg. of freedom    48
 Full point group                 C1      NOp   1
 Largest Abelian subgroup         C1      NOp   1
 Largest concise Abelian subgroup C1      NOp   1
                         Standard orientation:                         
 ---------------------------------------------------------------------
 Center     Atomic      Atomic             Coordinates (Angstroms)
 Number     Number       Type             X           Y           Z
 ---------------------------------------------------------------------
      1          6           0        3.667500    0.935277    0.224736
      2          1           0        4.687958    1.269558    0.048922
      3          1           0        3.005175    1.617582    0.752607
      4          6           0        3.243896   -0.267346   -0.181326
      5          1           0        3.950225   -0.940498   -0.673224
      6          6           0        1.876874   -0.772992    0.004755
      7          1           0        1.771555   -1.831483    0.253109
      8          6           0        0.762324   -0.022828   -0.129446
      9          1           0        0.864337    1.024901   -0.414847
     10          6           0       -0.582086   -0.515452    0.062696
     11          1           0       -0.680729   -1.565313    0.345591
     12          6           0       -1.700387    0.232564   -0.084280
     13          1           0       -1.604704    1.282243   -0.366146
     14          6           0       -3.045579   -0.260279    0.110445
     15          1           0       -3.134038   -1.310657    0.391683
     16          6           0       -4.157051    0.480773   -0.032494
     17          1           0       -5.148496    0.064037    0.123951
     18          1           0       -4.104236    1.531331   -0.312166
 ---------------------------------------------------------------------
 Rotational constants (GHZ):     10.7428849      0.6276630      0.5975904
 Standard basis: 6-31G(d) (6D, 7F)
 There are   140 symmetry adapted basis functions of A   symmetry.
 Integral buffers will be    131072 words long.
 Raffenetti 2 integral format.
 Two-electron integral symmetry is turned on.
   140 basis functions,   264 primitive gaussians,   140 cartesian basis functions
    29 alpha electrons       29 beta electrons
       nuclear repulsion energy       300.1424005529 Hartrees.
 NAtoms=   18 NActive=   18 NUniq=   18 SFac= 1.00D+00 NAtFMM=   60 NAOKFM=F Big=F
 One-electron integrals computed using PRISM.
 NBasis=   140 RedAO= T  NBF=   140
 NBsUse=   140 1.00D-06 NBFU=   140
 Initial guess read from the read-write file.
 B after Tr=     0.000000    0.000000    0.000000
         Rot=    1.000000    0.000000    0.000000    0.000000 Ang=   0.00 deg.
 Initial guess orbital symmetries:
       Occupied  (A) (A) (A) (A) (A) (A) (A) (A) (A) (A) (A) (A)
                 (A) (A) (A) (A) (A) (A) (A) (A) (A) (A) (A) (A)
                 (A) (A) (A) (A) (A)
       Virtual   (A) (A) (A) (A) (A) (A) (A) (A) (A) (A) (A) (A)
                 (A) (A) (A) (A) (A) (A) (A) (A) (A) (A) (A) (A)
                 (A) (A) (A) (A) (A) (A) (A) (A) (A) (A) (A) (A)
                 (A) (A) (A) (A) (A) (A) (A) (A) (A) (A) (A) (A)
                 (A) (A) (A) (A) (A) (A) (A) (A) (A) (A) (A) (A)
                 (A) (A) (A) (A) (A) (A) (A) (A) (A) (A) (A) (A)
                 (A) (A) (A) (A) (A) (A) (A) (A) (A) (A) (A) (A)
                 (A) (A) (A) (A) (A) (A) (A) (A) (A) (A) (A) (A)
                 (A) (A) (A) (A) (A) (A) (A) (A) (A) (A) (A) (A)
                 (A) (A) (A)
 Harris functional with IExCor=  402 diagonalized for initial guess.
 ExpMin= 1.61D-01 ExpMax= 3.05D+03 ExpMxC= 4.57D+02 IAcc=1 IRadAn=         1 AccDes= 0.00D+00
 HarFok:  IExCor=  402 AccDes= 0.00D+00 IRadAn=         1 IDoV= 1
 ScaDFX=  1.000000  1.000000  1.000000  1.000000
 FoFCou: FMM=F IPFlag=           0 FMFlag=      100000 FMFlg1=           0
         NFxFlg=           0 DoJE=T BraDBF=F KetDBF=T FulRan=T
         Omega=  0.000000  0.000000  1.000000  0.000000  0.000000 ICntrl=     500 IOpCl=  0
         NMat0=    1 NMatS0=    1 NMatT0=    0 NMatD0=    1 NMtDS0=    0 NMtDT0=    0
         I1Cent=           4 NGrid=           0.
 Petite list used in FoFCou.
 Requested convergence on RMS density matrix=1.00D-08 within 128 cycles.
 Requested convergence on MAX density matrix=1.00D-06.
 Requested convergence on             energy=1.00D-06.
 No special actions if energy rises.
 Integral accuracy reduced to 1.0D-05 until final iterations.
 Initial convergence to 1.0D-05 achieved.  Increase integral accuracy.
 SCF Done:  E(RB3LYP) =  -310.798905257     A.U. after   13 cycles
             Convg  =    0.5096D-08             -V/T =  2.0102
 Calling FoFJK, ICntrl=      2127 FMM=F ISym2X=0 I1Cent= 0 IOpClX= 0 NMat=1 NMatS=1 NMatT=0.
 ***** Axes restored to original set *****
 -------------------------------------------------------------------
 Center     Atomic                   Forces (Hartrees/Bohr)
 Number     Number              X              Y              Z
 -------------------------------------------------------------------
      1        6           0.002148331   -0.002575924    0.001777394
      2        1          -0.000262908    0.001242612    0.000528875
      3        1          -0.000066830   -0.001095664   -0.000239851
      4        6          -0.002430010    0.003864794   -0.001969759
      5        1          -0.002228044   -0.000099597    0.000467042
      6        6           0.002250139   -0.003838770   -0.002116427
      7        1           0.002075694    0.000382377   -0.000081351
      8        6          -0.001205059    0.002358387    0.002731756
      9        1           0.000310791    0.000116147   -0.000665623
     10        6          -0.000662971   -0.001495668   -0.001552692
     11        1           0.000079674    0.000450575    0.000560156
     12        6           0.001057681   -0.000511067    0.001761475
     13        1           0.000182654   -0.000645752   -0.000311437
     14        6          -0.001142651    0.001057395   -0.001524380
     15        1          -0.000118277    0.000658474    0.000437148
     16        6          -0.000081403    0.000511865    0.000352845
     17        1           0.000407937   -0.000804293    0.000080998
     18        1          -0.000314749    0.000424109   -0.000236167
 -------------------------------------------------------------------
 Cartesian Forces:  Max     0.003864794 RMS     0.001419592

 GradGradGradGradGradGradGradGradGradGradGradGradGradGradGradGradGradGrad
 Berny optimization.
 Using GEDIIS/GDIIS optimizer.
 Internal  Forces:  Max     0.003280490 RMS     0.001033553
 Search for a local minimum.
 Step number   3 out of a maximum of   79
 All quantities printed in internal units (Hartrees-Bohrs-Radians)
 Mixed Optimization -- RFO/linear search
 Update second derivatives using D2CorX and points    2    3
 DE= -3.64D-03 DEPred=-3.61D-03 R= 1.01D+00
 SS=  1.41D+00  RLast= 6.35D-01 DXNew= 8.4853D-01 1.9052D+00
 Trust test= 1.01D+00 RLast= 6.35D-01 DXMaxT set to 8.49D-01
 ITU=  1  1  0
 Use linear search instead of GDIIS.
     Eigenvalues ---    0.00310   0.00347   0.00499   0.01516   0.01524
     Eigenvalues ---    0.01527   0.01534   0.01613   0.01616   0.02656
     Eigenvalues ---    0.02683   0.02683   0.02683   0.02683   0.02685
     Eigenvalues ---    0.13787   0.15999   0.15999   0.16000   0.16000
     Eigenvalues ---    0.16000   0.16000   0.16000   0.16084   0.16248
     Eigenvalues ---    0.17708   0.22000   0.22000   0.22000   0.22004
     Eigenvalues ---    0.22971   0.28561   0.29761   0.30602   0.37499
     Eigenvalues ---    0.37600   0.37600   0.37600   0.37624   0.37658
     Eigenvalues ---    0.37725   0.38448   0.39315   0.40168   0.53849
     Eigenvalues ---    0.53947   0.54129   0.55577
 RFO step:  Lambda=-8.43209810D-04 EMin= 3.09906321D-03
 Quartic linear search produced a step of  0.42004.
 Iteration  1 RMS(Cart)=  0.08135186 RMS(Int)=  0.01574258
 Iteration  2 RMS(Cart)=  0.02933731 RMS(Int)=  0.00047942
 Iteration  3 RMS(Cart)=  0.00065525 RMS(Int)=  0.00001014
 Iteration  4 RMS(Cart)=  0.00000022 RMS(Int)=  0.00001014
 Variable       Old X    -DE/DX   Delta X   Delta X   Delta X     New X
                                 (Linear)    (Quad)   (Total)
    R1        2.05624  -0.00125   0.00170  -0.00470  -0.00299   2.05324
    R2        2.05526  -0.00047   0.00216  -0.00240  -0.00024   2.05502
    R3        2.52873   0.00318  -0.00003   0.00694   0.00691   2.53563
    R4        2.06491  -0.00125   0.00376  -0.00650  -0.00274   2.06217
    R5        2.77671  -0.00243  -0.01290  -0.00325  -0.01615   2.76056
    R6        2.06420  -0.00089   0.00377  -0.00519  -0.00143   2.06277
    R7        2.55146   0.00254   0.00237   0.00380   0.00616   2.55763
    R8        2.06110  -0.00040   0.00460  -0.00336   0.00124   2.06234
    R9        2.73001  -0.00007  -0.01412   0.00843  -0.00568   2.72432
   R10        2.06315  -0.00039   0.00495  -0.00358   0.00137   2.06452
   R11        2.55758   0.00089   0.00231  -0.00015   0.00216   2.55974
   R12        2.06182   0.00000   0.00404  -0.00230   0.00174   2.06356
   R13        2.73218   0.00220  -0.01389   0.01808   0.00419   2.73636
   R14        2.06163  -0.00014   0.00386  -0.00265   0.00121   2.06284
   R15        2.53882   0.00024   0.00047  -0.00069  -0.00023   2.53860
   R16        2.05373  -0.00091   0.00137  -0.00320  -0.00184   2.05190
   R17        2.05683  -0.00044   0.00239  -0.00248  -0.00009   2.05674
    A1        2.04520  -0.00082  -0.00883   0.00033  -0.00851   2.03669
    A2        2.12227  -0.00007   0.00485  -0.00472   0.00013   2.12240
    A3        2.11568   0.00089   0.00397   0.00436   0.00832   2.12400
    A4        2.07788  -0.00129  -0.00548  -0.00245  -0.00796   2.06992
    A5        2.17166   0.00328   0.01459   0.00856   0.02312   2.19478
    A6        2.03353  -0.00199  -0.00915  -0.00608  -0.01527   2.01826
    A7        2.03976  -0.00148  -0.00752  -0.00385  -0.01139   2.02837
    A8        2.17026   0.00264   0.01469   0.00438   0.01905   2.18931
    A9        2.07305  -0.00116  -0.00722  -0.00053  -0.00777   2.06528
   A10        2.07433  -0.00005  -0.00830   0.00644  -0.00186   2.07247
   A11        2.17186  -0.00040   0.01156  -0.01176  -0.00021   2.17166
   A12        2.03690   0.00046  -0.00330   0.00534   0.00203   2.03893
   A13        2.03359   0.00073  -0.00335   0.00789   0.00453   2.03812
   A14        2.17249  -0.00020   0.01189  -0.01078   0.00110   2.17359
   A15        2.07711  -0.00053  -0.00853   0.00290  -0.00564   2.07147
   A16        2.07981  -0.00052  -0.00843   0.00279  -0.00564   2.07417
   A17        2.17215  -0.00049   0.01253  -0.01295  -0.00042   2.17173
   A18        2.03123   0.00101  -0.00410   0.01016   0.00606   2.03729
   A19        2.02456   0.00089  -0.00588   0.01111   0.00523   2.02980
   A20        2.17411  -0.00016   0.01271  -0.01102   0.00169   2.17581
   A21        2.08451  -0.00073  -0.00683  -0.00009  -0.00693   2.07758
   A22        2.12692  -0.00019   0.00534  -0.00601  -0.00068   2.12624
   A23        2.11717   0.00047   0.00374   0.00105   0.00479   2.12196
   A24        2.03910  -0.00028  -0.00907   0.00496  -0.00411   2.03498
    D1        0.03400   0.00044   0.00686   0.01586   0.02272   0.05673
    D2       -3.12469   0.00035  -0.00204   0.01823   0.01617  -3.10852
    D3       -3.09928   0.00057   0.00990   0.01935   0.02926  -3.07002
    D4        0.02521   0.00048   0.00100   0.02172   0.02271   0.04792
    D5       -2.47195  -0.00116  -0.12981  -0.13220  -0.26202  -2.73398
    D6        0.68632  -0.00107  -0.12265  -0.13248  -0.25515   0.43117
    D7        0.65293  -0.00125  -0.13851  -0.12986  -0.26836   0.38458
    D8       -2.47198  -0.00116  -0.13136  -0.13014  -0.26148  -2.73346
    D9        0.02345   0.00046   0.00224   0.01995   0.02218   0.04563
   D10       -3.13322   0.00042  -0.00288   0.02229   0.01942  -3.11380
   D11       -3.10117   0.00056   0.00952   0.01970   0.02921  -3.07196
   D12        0.02535   0.00052   0.00440   0.02204   0.02646   0.05181
   D13        0.01189   0.00002   0.00416  -0.00244   0.00173   0.01362
   D14       -3.12987   0.00006   0.00261   0.00266   0.00528  -3.12459
   D15        3.13870  -0.00003  -0.00086  -0.00014  -0.00101   3.13769
   D16       -0.00306   0.00001  -0.00241   0.00496   0.00254  -0.00052
   D17       -0.00068  -0.00002   0.00072  -0.00190  -0.00118  -0.00186
   D18       -3.13958  -0.00006   0.00210  -0.00644  -0.00434   3.13927
   D19        3.14074   0.00002  -0.00088   0.00332   0.00243  -3.14002
   D20        0.00184  -0.00001   0.00050  -0.00122  -0.00072   0.00112
   D21       -0.00309   0.00003  -0.00132   0.00346   0.00214  -0.00095
   D22        3.13941   0.00000  -0.00077   0.00033  -0.00044   3.13897
   D23        3.14113  -0.00001   0.00003  -0.00096  -0.00094   3.14020
   D24        0.00045  -0.00003   0.00057  -0.00409  -0.00352  -0.00307
   D25        3.14031   0.00003  -0.00074   0.00302   0.00228  -3.14059
   D26       -0.00086   0.00002  -0.00046   0.00209   0.00163   0.00077
   D27       -0.00035   0.00000  -0.00017  -0.00021  -0.00037  -0.00072
   D28       -3.14152  -0.00001   0.00011  -0.00114  -0.00103   3.14064
         Item               Value     Threshold  Converged?
 Maximum Force            0.003280     0.000450     NO 
 RMS     Force            0.001034     0.000300     NO 
 Maximum Displacement     0.489875     0.001800     NO 
 RMS     Displacement     0.109256     0.001200     NO 
 Predicted change in Energy=-9.942576D-04
 GradGradGradGradGradGradGradGradGradGradGradGradGradGradGradGradGradGrad

                          Input orientation:                          
 ---------------------------------------------------------------------
 Center     Atomic      Atomic             Coordinates (Angstroms)
 Number     Number       Type             X           Y           Z
 ---------------------------------------------------------------------
      1          6           0        0.464271   -3.942637    1.066548
      2          1           0        0.911717   -4.929791    0.989978
      3          1           0        0.180733   -3.610715    2.062551
      4          6           0        0.256900   -3.178637   -0.016840
      5          1           0        0.498396   -3.588427   -0.998972
      6          6           0       -0.299651   -1.827986   -0.014942
      7          1           0       -0.765430   -1.497050   -0.945027
      8          6           0       -0.258292   -0.963633    1.025721
      9          1           0        0.263553   -1.263073    1.936241
     10          6           0       -0.843886    0.353681    1.014866
     11          1           0       -1.362849    0.654081    0.101637
     12          6           0       -0.787621    1.227653    2.048225
     13          1           0       -0.268240    0.930568    2.961693
     14          6           0       -1.374326    2.551410    2.033807
     15          1           0       -1.890594    2.841647    1.116835
     16          6           0       -1.323845    3.420718    3.056742
     17          1           0       -1.781569    4.403474    2.996105
     18          1           0       -0.820965    3.174156    3.989957
 ---------------------------------------------------------------------
                    Distance matrix (angstroms):
                    1          2          3          4          5
     1  C    0.000000
     2  H    1.086529   0.000000
     3  H    1.087469   1.850598   0.000000
     4  C    1.341800   2.123443   2.125173   0.000000
     5  H    2.095949   2.434340   3.078040   1.091252   0.000000
     6  C    2.494984   3.478286   2.779365   1.460826   2.168951
     7  H    3.396983   4.282614   3.795831   2.175874   2.444182
     8  C    3.065653   4.135288   2.876595   2.501719   3.400221
     9  H    2.824308   3.841921   2.352496   2.735682   3.752053
    10  C    4.491358   5.567571   4.226574   3.841018   4.625741
    11  H    5.039765   6.094459   4.941286   4.162613   4.761769
    12  C    5.409511   6.474701   4.934340   4.977038   5.842420
    13  H    5.279798   6.294741   4.651159   5.102253   6.057715
    14  C    6.818260   7.892018   6.355377   6.300753   7.099468
    15  H    7.181534   8.262221   6.842350   6.491592   7.178424
    16  C    7.834362   8.888209   7.259009   7.449640   8.300451
    17  H    8.855763   9.919081   8.303576   8.409613   9.221136
    18  H    7.800441   8.813400   7.124097   7.587766   8.506624
                    6          7          8          9         10
     6  C    0.000000
     7  H    1.091571   0.000000
     8  C    1.353439   2.103705   0.000000
     9  H    2.107947   3.068430   1.091344   0.000000
    10  C    2.473129   2.696765   1.441650   2.165467   0.000000
    11  H    2.702708   2.465721   2.165866   3.112303   1.092497
    12  C    3.719099   4.047722   2.475366   2.705775   1.354556
    13  H    4.058443   4.626336   2.708520   2.479196   2.110522
    14  C    4.952919   5.063027   3.823258   4.152403   2.479843
    15  H    5.061372   4.933717   4.141602   4.707494   2.701105
    16  C    6.167099   6.364780   4.948028   5.070823   3.715688
    17  H    7.077681   7.168071   5.916808   6.116828   4.604930
    18  H    6.429028   6.795390   5.120995   5.008285   4.099606
                   11         12         13         14         15
    11  H    0.000000
    12  C    2.109283   0.000000
    13  H    3.074822   1.091989   0.000000
    14  C    2.708001   1.448021   2.170606   0.000000
    15  H    2.468722   2.165413   3.112516   1.091608   0.000000
    16  C    4.048265   2.472686   2.706323   1.343369   2.102324
    17  H    4.755125   3.460094   3.788460   2.126500   2.445985
[...]
 915,-0.086477,-0.119621,0.3209377,0.1027618,-0.1021322,0.3588262,0.181
 5914,0.092237,0.054662,0.0134336,0.0449006,-0.0220736,-0.0690209,0.025
 2952,-0.1027481,-0.1202831,-0.0718606,-0.0337056,0.1643909,-0.0449458,
 -0.0793141,-0.103393,0.1696801,-0.3212846,0.0327511,0.063716,0.0700032
 ,-0.0731352,0.0568293,0.0201064,0.0618708,-0.0715872,0.0368539,-0.0706
 803,-0.0371188,-0.1082118,-0.0079696,-0.0547779,0.0751514,0.0708209,0.
 0630483,-0.0331141,-0.0078921,0.0575404,0.0643533,-0.0589223,0.0452886
 ,0.0079901,0.0107477,-0.0811551,0.0495491,-0.0508575,-0.0521521,-0.092
 975,0.0702346,-0.0684871,0.0741192,0.0035069,0.0997655,-0.0806659,0.10
 70144,0.0621909,0.0570637,-0.0711403,0.0514754,-0.0001079,0.0171963,-0
 .0862575,0.0638948,-0.0590473,-0.0826499,0.0193963,0.0838982,-0.035140
 9,-0.0515467,-0.0174677,0.0448104,0.0910095,0.0944081,0.0621942,0.0623
 64,-0.0697709,0.051895,0.0024118,0.0219941,-0.07951,0.0413517,-0.05919
 29,0.0029371,-0.211585,-0.0114474,-0.0947603,0.2736066,0.1143254,0.100
 0575,-0.1809688,0.0208653,0.0596899,0.0677334,-0.0600092,0.0378351,0.0
 067022,-0.007492,-0.0926771,0.0758424,-0.0675135,-0.2367651,-0.0273852
 ,0.1743608,-0.075909,-0.2681672,-0.1436678,0.1287953,-0.0269392,0.0116
 254,0.0925073,0.0871394,-0.0249735,0.0791482,-0.0813032,-0.0219764,-0.
 0325594,-0.0045761,0.0425159,0.0892337,0.0436416,-0.0884928,0.0592153,
 0.0375094,0.0509845,-0.0721966,0.0095211,-0.0510743\Polar=44.7556597,-
 43.8221428,203.4074661,-0.6749952,54.8194726,100.6086981\PG=C01 [X(C8H
 10)]\NImag=0\\0.18561640,-0.21328230,0.63675860,0.03101977,-0.08334062
 ,0.76131182,-0.07243514,0.10687366,0.01325415,0.06756328,0.10650483,-0
 .29753400,-0.03413059,-0.11665579,0.31359201,0.01499317,-0.03827135,-0
 .06317990,-0.01396115,0.03476522,0.05936488,-0.04359159,0.02107077,0.0
 3822398,0.00139881,0.00290032,0.01003754,0.03129655,0.02187593,-0.0857
 2513,-0.08537427,0.00278617,-0.00490203,-0.02508681,-0.02400331,0.0806
 7996,0.03628517,-0.08299840,-0.30429676,-0.00040160,0.00048498,-0.0001
 7256,-0.03909691,0.09069782,0.32572516,-0.07717611,0.07165664,-0.07012
 612,0.00166101,0.00681293,-0.01002488,0.00526994,-0.00330216,0.0038713
 3,0.19945780,0.06943356,-0.22894042,0.17140162,0.00551094,-0.01336409,
 0.02635143,-0.00040329,0.01280230,-0.01018473,-0.17470828,0.58705961,-
 0.07515524,0.18825440,-0.37893667,0.00121796,-0.00477124,0.00592182,-0
 .00723569,0.01719946,-0.02123577,0.05378740,-0.08047091,0.77397077,0.0
 0647930,-0.00332350,-0.00630977,-0.00650272,-0.00306645,0.00000371,0.0
 1028186,0.00472701,-0.00116987,-0.04880361,0.02197473,0.02784085,0.035
 74997,-0.00150460,0.00948745,0.01960186,-0.00286341,-0.00001697,0.0001
 0960,0.00445336,0.00004246,0.00319554,0.01987032,-0.09669190,-0.099399
 45,-0.02601780,0.10337567,0.00356171,-0.01095832,-0.02371576,0.0003715
 5,0.00041596,0.00133162,-0.00187122,0.00285275,-0.00220159,0.02926879,
 -0.09823405,-0.28120075,-0.03079657,0.10381356,0.30253609,0.00036084,0
 .01386314,-0.00760889,0.00931440,0.00369931,-0.00058637,-0.00580344,-0
 .00236475,0.00056101,-0.08714590,0.06677972,0.00114505,0.00215490,0.00
 364765,-0.00117234,0.22529110,0.01721590,-0.03298357,0.02290873,0.0044
 8428,0.00280163,0.00096075,-0.00428296,-0.00154863,-0.00187336,0.06033
 120,-0.21905858,-0.02487840,0.00324115,-0.01230216,0.00186976,-0.14110
 738,0.60498320,-0.00679908,0.02048141,0.01371013,-0.00014767,0.0033332
 0,-0.00333528,-0.00038534,-0.00080150,0.00098806,-0.01532783,0.0137913
 0,-0.10959831,0.00980415,-0.02906942,0.00119273,0.13431459,0.12487833,
 0.70227926,0.00038298,0.00286747,0.00008554,0.00016503,0.00024038,-0.0
 0048445,-0.00006597,-0.00004743,-0.00009418,-0.00060932,0.00160169,-0.
 00962413,-0.00038323,-0.00069487,0.00001575,-0.08602367,0.04384809,-0.
 09497712,0.07845102,0.00245993,-0.00391150,-0.00274889,-0.00030329,-0.
 00107830,0.00108422,0.00008342,0.00028648,0.00007274,0.01259278,-0.009
 37469,0.02751801,-0.00075217,0.00063017,-0.00032231,0.04240970,-0.0830
 0719,0.07341484,-0.04895765,0.08842990,-0.00050922,-0.00078509,0.00136
 107,-0.00002370,-0.00003993,-0.00000647,-0.00002553,-0.00023468,0.0001
 1053,0.00088196,-0.00189889,0.00200517,0.00046806,0.00058725,0.0010362
 7,-0.09649502,0.07181346,-0.25464454,0.10841116,-0.07574240,0.27204957
 ,0.00126162,-0.00090947,0.00352719,-0.00072230,-0.00025462,-0.00024167
 ,0.00049466,0.00009077,-0.00047263,0.00287451,0.01350389,0.00804219,0.
 00055154,0.00376021,0.00055206,-0.06696199,0.00419295,-0.03178889,0.00
 442506,-0.00784395,-0.01251530,0.24600925,-0.00404674,0.00573458,-0.01
 100605,0.00020556,0.00039936,-0.00029031,-0.00017247,-0.00027441,0.000
 22593,0.01018483,-0.04241118,-0.01807964,0.00359796,-0.00367738,0.0003
 9666,0.00681025,-0.22597524,-0.17262807,-0.00047725,0.00881527,0.00923
 613,-0.14639093,0.61212254,-0.00401118,0.00815437,-0.00548036,-0.00077
 316,-0.00019684,-0.00079326,0.00094509,0.00117294,-0.00033392,0.009644
 56,-0.02155567,0.01099991,-0.00048967,0.00221274,0.00104932,-0.0295365
 1,-0.17308166,-0.33615623,-0.00327181,-0.01902985,-0.02179512,0.156096
 53,0.12822301,0.70546702,0.00024856,-0.00012174,-0.00100365,-0.0001482
 0,-0.00004823,0.00025784,0.00077043,0.00017081,0.00036027,-0.00406135,
 -0.00280715,0.00234918,0.00000024,0.00004846,0.00006419,0.00388103,0.0
 0288745,-0.00137520,0.00827498,0.00286933,-0.00202479,-0.09603764,0.03
 813381,-0.10490528,0.08784247,-0.00010149,-0.00071766,-0.00094381,0.00
 006623,0.00018550,0.00023165,0.00022942,-0.00140079,0.00033878,-0.0015
 2229,-0.00110930,0.00145316,0.00003093,0.00026807,0.00022329,-0.009149
 63,0.01162641,-0.01788367,0.00301712,-0.00101258,-0.00411463,0.0389524
 1,-0.07889012,0.06285044,-0.04656932,0.08052908,0.00022621,-0.00011816
 ,0.00020981,0.00013242,0.00006313,0.00038792,-0.00039633,-0.00010521,0
 .00081254,0.00121388,0.00285464,-0.00009419,0.00015377,-0.00007587,0.0
 0007295,-0.01211189,0.00736642,-0.02039669,-0.00274435,-0.00402590,-0.
 00159588,-0.10382035,0.06314506,-0.25204632,0.11765929,-0.06760921,0.2
 7019977,-0.00114600,0.00114051,-0.00090890,-0.00033083,-0.00016323,-0.
 00001609,-0.00002436,0.00011920,0.00011598,0.00895402,-0.00028982,-0.0
 0345519,0.00068046,-0.00096277,-0.00005165,0.00491510,0.00744205,0.008
 00337,-0.00545738,-0.00308661,0.00101243,-0.09801713,0.07767601,-0.023
 70949,-0.00243505,0.01316692,-0.00069730,0.24527567,0.00205388,-0.0028
 4684,0.00546764,-0.00026302,-0.00005142,0.00019063,0.00015949,-0.00003
 906,0.00009203,-0.00254056,0.01514551,-0.00732245,-0.00086619,-0.00064
 783,0.00007445,0.01347217,-0.05008380,-0.02656948,-0.00096637,0.000278
 27,0.00272264,0.07686323,-0.23047941,0.02604554,0.00371027,-0.00660565
 ,-0.00052302,-0.14830396,0.61598218,0.00118697,-0.00161824,0.00102590,
 0.00041860,0.00014845,0.00051536,-0.00018980,-0.00037303,0.00059314,-0
 .00554989,0.00230032,-0.00381545,0.00017994,-0.00112747,-0.00017275,0.
 01235516,-0.03918553,-0.00392825,0.00321931,-0.00080827,0.00036605,-0.
 02365720,0.02493378,-0.09636225,-0.01165005,0.02592553,0.00017872,0.15
 350198,0.13070356,0.70111444,0.00002540,0.00001588,-0.00010958,0.00002
 265,-0.00000038,0.00005868,-0.00000841,-0.00003359,0.00008469,-0.00007
 939,-0.00012942,0.00021777,0.00001229,0.00006201,0.00002608,-0.0011498
 7,-0.00154286,0.00000760,0.00034948,0.00025496,0.00064256,-0.00263605,
 0.00381726,-0.01130854,0.00243105,0.00292842,-0.00079866,-0.09276250,0
 .03876585,-0.10249407,0.08637667,-0.00002996,-0.00001682,0.00012642,0.
 00000088,-0.00000528,-0.00011066,0.00005294,0.00007460,-0.00014948,-0.
 00026652,0.00010382,-0.00027409,0.00000803,-0.00002139,-0.00004280,-0.
 00051242,0.00111206,0.00194052,-0.00027863,-0.00004830,-0.00122946,0.0
 1313391,-0.00657104,0.02594954,0.00295195,-0.00402214,-0.00070729,0.03
 918983,-0.07966570,0.06464225,-0.04638327,0.08073850,0.00006550,-0.000
 08499,-0.00000029,-0.00004620,-0.00001752,0.00000534,0.00000914,-0.000
 00958,-0.00000158,0.00008778,0.00021273,0.00014420,-0.00005086,0.00004
 611,0.00001917,0.00125268,-0.00086293,0.00083274,-0.00013290,0.0005017
 5,0.00043475,-0.00079623,-0.00065050,0.00012864,-0.00075191,-0.0006611
 4,0.00094448,-0.10201171,0.06369761,-0.25144409,0.11528664,-0.06774010
 ,0.26947918,0.00005172,0.00003792,0.00037871,-0.00012714,-0.00000860,-
 0.00005379,0.00006190,0.00000994,-0.00004855,0.00029487,0.00067838,0.0
 0016762,-0.00027735,0.00014117,0.00003987,0.00118446,0.00194678,-0.002
 82172,0.00008564,-0.00005156,0.00026897,0.00429909,0.01290637,0.013127
 90,-0.00113126,-0.00049267,0.00117629,-0.06748103,0.00850112,-0.030420
 94,0.00378807,-0.00839418,-0.01248776,0.24360502,-0.00101978,0.0014278
 0,-0.00275169,0.00007926,-0.00004191,0.00000928,-0.00005686,0.00003788
 ,0.00008497,0.00217245,-0.00611759,0.00137427,0.00056056,-0.00036877,-
 0.00005926,0.00146173,0.00928279,0.01220616,-0.00057397,-0.00002087,-0
 .00035110,0.00835054,-0.04934006,-0.03896349,-0.00149313,0.00124796,-0
 .00078047,0.00739787,-0.22887792,-0.17641318,0.00120441,0.00916626,0.0
 0811159,-0.14729726,0.61329656,-0.00096449,0.00156828,-0.00184161,-0.0
 0004990,-0.00000887,-0.00010172,-0.00001342,0.00004732,-0.00002349,0.0
 0212315,-0.00476750,0.00203712,0.00029763,0.00031775,0.00010085,-0.003
 23559,0.01167937,0.00789707,-0.00020303,-0.00013620,0.00039695,0.00777
 827,-0.02387345,-0.00181475,0.00009662,0.00193267,0.00064816,-0.031685
 21,-0.17403415,-0.33514657,-0.00173301,-0.01844745,-0.02045018,0.15267
 318,0.13308805,0.70235778,-0.00004377,-0.00001595,0.00002403,0.0000419
 0,0.00000847,0.00000594,0.00001393,0.00000865,0.00000135,0.00001093,0.
 00005139,-0.00014770,0.00001570,-0.00003769,0.00000754,0.00014069,-0.0
 0012083,0.00006282,0.00026730,0.00019615,-0.00006864,-0.00462663,-0.00
 152987,0.00257095,0.00032655,-0.00024985,-0.00012373,0.00391311,0.0010
 6698,-0.00155415,0.00748455,0.00278852,-0.00232572,-0.09196724,0.03877
 876,-0.10289341,0.08550794,-0.00000963,-0.00001276,-0.00005318,0.00001
 740,0.00000439,0.00002086,-0.00000141,-0.00001237,0.00001929,0.0000442
 6,-0.00002219,0.00007059,0.00000621,0.00000010,0.00001269,0.00002284,0
 .00006723,-0.00001685,0.00021434,-0.00004718,0.00014247,-0.00288668,0.
 00035475,-0.00065375,0.00033322,-0.00011993,0.00047259,-0.00836499,0.0
 0915406,-0.01854047,0.00280193,-0.00106064,-0.00397183,0.03915499,-0.0
 7896639,0.06456586,-0.04613858,0.07974633,0.00006290,-0.00005669,-0.00
 003116,-0.00001902,-0.00000651,0.00002254,-0.00000951,-0.00001425,0.00
 001960,-0.00002678,0.00004408,0.00002106,-0.00001469,-0.00000050,0.000
 00677,0.00024932,-0.00044793,0.00023720,-0.00008583,0.00012426,0.00026
 746,0.00118247,0.00287723,0.00040123,0.00054078,-0.00115643,0.00043246
 ,-0.01234304,0.00816231,-0.02027278,-0.00231838,-0.00395533,-0.0014391
 7,-0.10247666,0.06329523,-0.25311817,0.11556090,-0.06745187,0.27089050
 ,0.00003442,-0.00007120,-0.00050292,0.00015025,0.00001889,0.00003003,-
 0.00011072,-0.00003265,0.00000422,-0.00089064,-0.00111927,0.00107537,0
 .00005600,0.00004009,-0.00006003,0.00018384,0.00116904,0.00143556,0.00
 017434,0.00014987,-0.00006766,0.00973437,-0.00048537,-0.00609378,-0.00
 006768,-0.00019454,0.00020807,0.00405401,0.00709427,0.00646491,-0.0046
 6435,-0.00288829,0.00122121,-0.09978143,0.07489399,-0.02207261,-0.0025
 8660,0.01304263,-0.00063802,0.24380821,0.00056300,-0.00063420,0.001431
 70,-0.00002567,0.00005854,0.00001148,-0.00001358,-0.00006139,-0.000008
 24,-0.00160456,0.00280100,-0.00138869,-0.00027116,0.00005718,0.0000401
 4,0.00085636,-0.00646508,-0.00507124,0.00031167,0.00003800,-0.00004328
 ,-0.00071118,0.01524539,0.00284450,-0.00004448,-0.00010941,0.00008113,
 0.01299498,-0.04706227,-0.02147051,-0.00156070,0.00030901,0.00290776,0
 .07419982,-0.22511513,0.02266758,0.00342899,-0.00630915,-0.00085913,-0
 .14131282,0.61662549,0.00029205,-0.00067007,0.00042400,0.00003891,-0.0
 0003571,0.00006077,0.00001640,0.00001775,0.00001777,-0.00035810,0.0015
 4059,-0.00068766,0.00000957,-0.00025150,-0.00007700,0.00128991,-0.0039
 3330,-0.00114111,-0.00002303,0.00008274,-0.00000102,-0.00603684,0.0022
 7491,-0.00217916,0.00035926,-0.00032024,0.00041414,0.01324277,-0.03753
 753,-0.00074954,0.00264189,-0.00075632,0.00030181,-0.02292412,0.024508
 17,-0.09801786,-0.01147008,0.02595274,0.00015909,0.15272214,0.15073063
 ,0.72628788,-0.00001621,0.00002909,0.00000101,-0.00000611,0.00000331,-
 0.00000036,0.00000530,-0.00000077,0.00000266,0.00003203,-0.00002205,-0
 .00004162,-0.00000486,0.00001010,0.00000943,-0.00004117,0.00002725,0.0
 0002837,0.00000739,0.00001750,0.00002142,-0.00006331,0.00000333,0.0003
 8206,0.00012882,-0.00010687,-0.00001575,-0.00098639,-0.00145574,0.0000
 1999,0.00028993,0.00031709,0.00056743,-0.00270076,0.00370789,-0.011677
 60,0.00217126,0.00293235,-0.00064374,-0.09370816,0.03763976,-0.1026160
 6,0.08674737,-0.00000120,-0.00003107,0.00000495,0.00000959,0.00000017,
 -0.00000110,0.00000257,0.00000372,-0.00000243,-0.00002099,0.00003968,0
 .00003097,0.00000499,-0.00000690,-0.00000818,-0.00001013,-0.00003283,-
 0.00007734,0.00000356,-0.00003327,-0.00005059,-0.00015714,-0.00011412,
 -0.00034263,-0.00010542,0.00021638,-0.00015040,-0.00045732,0.00130732,
 0.00195087,-0.00029512,-0.00012217,-0.00116620,0.01328381,-0.00668145,
 0.02611644,0.00287622,-0.00417823,-0.00072144,0.03803411,-0.07849853,0
 .06466144,-0.04501801,0.07973559,-0.00000698,0.00005816,0.00001746,-0.
 00001481,0.00000504,-0.00000535,-0.00000202,-0.00000323,-0.00000090,0.
 00002604,-0.00002969,-0.00005455,-0.00001070,0.00001950,0.00001558,-0.
 00006085,0.00008371,-0.00003814,-0.00000360,-0.00000288,0.00000743,0.0
 0020674,0.00008631,0.00046816,-0.00001201,-0.00015631,-0.00011527,0.00
 110068,-0.00078623,0.00063315,-0.00010709,0.00051895,0.00046935,-0.000
 89245,-0.00059031,-0.00014567,-0.00069718,-0.00056010,0.00098803,-0.10
 217248,0.06359457,-0.25470057,0.11494821,-0.06656413,0.27257422,-0.000
 02717,0.00016993,0.00005429,-0.00003738,0.00001093,-0.00001958,-0.0000
 0467,-0.00001111,-0.00000580,0.00007473,-0.00011744,-0.00010995,-0.000
 01683,0.00005974,0.00003069,-0.00029683,0.00028415,-0.00004171,0.00001
 228,-0.00001494,0.00000469,0.00030330,0.00016607,0.00106093,-0.0000461
 2,-0.00001324,-0.00005358,0.00058395,0.00284570,-0.00200779,0.00017460
 ,0.00004426,0.00022608,0.00631293,0.01070218,0.01189109,-0.00087173,-0
 .00059064,0.00105632,-0.06467202,0.01625995,-0.02506870,0.00436830,-0.
 00884054,-0.01205064,0.22514999,-0.00011155,-0.00001633,-0.00059247,0.
 00007253,-0.00004037,0.00002161,-0.00002451,0.00002910,0.00000625,0.00
 027068,-0.00092141,0.00070176,0.00013594,-0.00010438,-0.00006557,0.000
 06882,0.00167768,0.00204082,-0.00008350,0.00005378,-0.00001910,0.00073
 513,-0.00477245,-0.00354874,0.00005566,-0.00006085,0.00009676,0.001994
 46,0.00518680,0.00847904,-0.00012422,0.00002881,-0.00036811,0.00623764
 ,-0.04087592,-0.03566187,-0.00129725,0.00127683,-0.00047032,0.01146807
 ,-0.26619043,-0.21170405,0.00125454,0.00904012,0.00786251,-0.17230780,
 0.66484319,-0.00027730,0.00043423,-0.00056871,-0.00000559,-0.00000412,
 -0.00002228,0.00000332,0.00001394,-0.00000116,0.00059076,-0.00138256,0
 .00049926,0.00007967,0.00003781,0.00001320,-0.00043090,0.00284133,0.00
 209262,-0.00010806,-0.00000151,0.00000955,0.00173024,-0.00491919,-0.00
 107022,0.00001972,-0.00006304,-0.00007131,-0.00299730,0.01102966,0.006
 41626,0.00006509,0.00004531,0.00032069,0.00683553,-0.02326340,-0.00060
 169,0.00028523,0.00145699,0.00092081,-0.03044557,-0.19836061,-0.356576
 63,-0.00070791,-0.02021864,-0.01959421,0.15192019,0.15276650,0.6957651
 3,-0.00002634,0.00001997,-0.00000519,-0.00003042,-0.00000913,-0.000001
 12,0.00002696,0.00001066,0.00000359,0.00023400,0.00005726,-0.00010771,
 0.00000751,-0.00001882,0.00000557,-0.00003050,0.00003274,0.00006522,-0
 .00007053,-0.00003052,0.00001994,-0.00113041,-0.00056995,0.00038333,0.
 00001078,0.00000873,-0.00001004,0.00020385,0.00007355,0.00009850,0.000
 12394,0.00007168,-0.00002092,0.00935602,0.00316253,-0.00334656,-0.0001
 1261,-0.00030997,0.00010561,0.00431772,-0.00145391,-0.00108359,-0.0051
 3056,-0.00246879,0.00240081,-0.08346839,0.11414344,-0.01735463,0.07769
 822,0.00000522,-0.00004732,0.00000744,-0.00000172,-0.00001304,0.000001
 85,0.00001085,0.00001154,-0.00000340,0.00005496,0.00008693,-0.00003342
 ,0.00001163,-0.00003298,-0.00001229,0.00005467,-0.00014098,0.00001008,
 -0.00002887,-0.00000399,0.00000186,-0.00057579,-0.00019667,-0.00012234
 ,0.00000614,0.00001587,0.00001184,0.00052690,-0.00068041,0.00046100,0.
 00002571,0.00002120,-0.00008309,0.00244858,0.00153139,-0.00473572,-0.0
 0014944,0.00020994,0.00013333,0.00895587,-0.01435030,0.00420061,-0.002
 59091,0.00006132,0.00070278,0.11269690,-0.29414233,0.01882381,-0.12312
 328,0.31050309,0.00001802,-0.00003669,-0.00001628,0.00001730,-0.000000
 55,0.00000483,-0.00001219,-0.00000100,-0.00000087,-0.00010055,-0.00001
 344,0.00004704,0.00000628,-0.00001210,-0.00000792,0.00006960,-0.000085
 69,0.00004378,0.00002288,0.00001602,-0.00001184,0.00033056,0.00002170,
 -0.00054881,0.00000327,-0.00000686,0.00001773,0.00063304,-0.00098469,0
 .00084110,-0.00007987,0.00006646,0.00001342,-0.00414202,-0.00265161,-0
 .00268043,0.00028860,-0.00031989,0.00016712,0.01060685,-0.02483553,0.0
 0579077,0.00226553,0.00102546,0.00046953,-0.01896852,0.02285473,-0.058
 41138,0.01882277,-0.01836848,0.05312554,0.00000109,-0.00002083,0.00000
 635,0.00002292,0.00000705,0.00000253,-0.00001118,-0.00000336,-0.000000
 73,-0.00009751,0.00000516,0.00003385,-0.00000117,0.00000685,-0.0000014
 3,0.00002702,-0.00004899,-0.00005713,0.00001459,0.00000707,-0.00000132
 ,0.00024206,0.00017115,-0.00011192,0.00001238,-0.00000028,0.00000206,0
 .00006052,-0.00021065,0.00007853,0.00022195,0.00019420,-0.00009224,-0.
 00557350,-0.00203117,0.00301490,0.00031473,-0.00026824,-0.00018264,0.0
 0396843,0.00074350,-0.00103240,0.00890713,0.00315981,-0.00265166,-0.08
 753892,0.03751194,-0.10920248,-0.00197923,0.00167259,-0.00978155,0.081
 40869,-0.00000499,0.00000921,-0.00000879,0.00000641,0.00000582,0.00000
 164,-0.00000473,-0.00000422,0.00000170,-0.00002569,-0.00002750,0.00001
 566,-0.00000187,0.00000958,0.00000352,-0.00000203,0.00004708,0.0000209
 0,0.00000424,0.00000600,0.00000535,0.00014671,0.00003021,0.00004190,0.
 00002239,-0.00004083,0.00000395,-0.00002002,-0.00001383,-0.00000811,0.
 00019313,-0.00002078,0.00013846,-0.00330226,0.00041537,-0.00031810,0.0
 0033532,-0.00008478,0.00050395,-0.00876271,0.00966127,-0.01876086,0.00
 325216,-0.00070572,-0.00423865,0.03865590,-0.07501186,0.06076347,0.010
 40383,-0.00283325,0.02333216,-0.04089580,0.06855824,0.00001201,-0.0000
 1223,0.00000731,-0.00000808,-0.00000411,0.00000174,0.00000248,0.000001
 57,0.00000180,0.00001851,0.00004072,-0.00002299,-0.00000151,-0.0000054
 2,0.00000120,0.00000104,-0.00005307,-0.00003504,-0.00000215,0.00000361
 ,0.00001005,-0.00011714,0.00002650,0.00006613,0.00001250,-0.00004021,0
 .00000099,0.00026563,-0.00042851,0.00020757,-0.00008181,0.00012352,0.0
 0024154,0.00159995,0.00314681,0.00050420,0.00047324,-0.00114614,0.0003
 2740,-0.01171530,0.00772775,-0.01932567,-0.00254308,-0.00448705,-0.000
 98824,-0.10791800,0.05760025,-0.26911992,0.00002442,-0.00099587,0.0011
 5666,0.11997727,-0.06149814,0.28696526\\0.00000191,0.00000733,0.000006
 72,0.00000749,-0.00000221,-0.00000442,0.00000622,0.00000396,-0.0000008
 7,-0.00000015,-0.00000026,0.00000268,-0.00000038,-0.00000358,-0.000005
 46,0.00000223,0.00000429,0.00000293,-0.00001026,-0.00000017,-0.0000022
 4,0.00000426,-0.00001182,-0.00000744,0.00000540,0.00000065,0.00000323,
 -0.00000115,0.00000838,0.00001642,-0.00000445,-0.00000070,-0.00000430,
 -0.00001389,-0.00000130,-0.00001331,0.00000611,0.00000136,0.00000326,0
 .00000403,-0.00000202,0.00001189,-0.00000551,-0.00000244,-0.00000428,-
 0.00000378,0.00000345,-0.00000422,-0.00000269,-0.00000193,-0.00000099,
 0.00000459,-0.00000301,0.00000040\\\@


 When cryptography is outlawed, bayl bhgynjf jvyy unir cevinpl.
 Job cpu time:  0 days  0 hours  3 minutes 30.5 seconds.
 File lengths (MBytes):  RWF=     48 Int=      0 D2E=      0 Chk=      3 Scr=      1
 Normal termination of Gaussian 09 at Tue Mar  2 15:06:26 2021.
