 Entering Gaussian System, Link 0=g09
 Input=octa_1,2,3-cis.com
 Output=octa_1,2,3-cis.log
 Initial command:
 /home/student/g09/l1.exe /home/student/Aniruddha_1811022/Lab_3/Gau-9670.inp -scrdir=/home/student/Aniruddha_1811022/Lab_3/
 Entering Link 1 = /home/student/g09/l1.exe PID=      9672.
  
 Copyright (c) 1988,1990,1992,1993,1995,1998,2003,2009,2011,
            Gaussian, Inc.  All Rights Reserved.
  
 This is part of the Gaussian(R) 09 program.  It is based on
 the Gaussian(R) 03 system (copyright 2003, Gaussian, Inc.),
 the Gaussian(R) 98 system (copyright 1998, Gaussian, Inc.),
 the Gaussian(R) 94 system (copyright 1995, Gaussian, Inc.),
 the Gaussian 92(TM) system (copyright 1992, Gaussian, Inc.),
 the Gaussian 90(TM) system (copyright 1990, Gaussian, Inc.),
 the Gaussian 88(TM) system (copyright 1988, Gaussian, Inc.),
 the Gaussian 86(TM) system (copyright 1986, Carnegie Mellon
 University), and the Gaussian 82(TM) system (copyright 1983,
 Carnegie Mellon University). Gaussian is a federally registered
 trademark of Gaussian, Inc.
  
 This software contains proprietary and confidential information,
 including trade secrets, belonging to Gaussian, Inc.
  
 This software is provided under written license and may be
 used, copied, transmitted, or stored only in accord with that
 written license.
  
 The following legend is applicable only to US Government
 contracts under FAR:
  
                    RESTRICTED RIGHTS LEGEND
  
 Use, reproduction and disclosure by the US Government is
 subject to restrictions as set forth in subparagraphs (a)
 and (c) of the Commercial Computer Software - Restricted
 Rights clause in FAR 52.227-19.
  
 Gaussian, Inc.
 340 Quinnipiac St., Bldg. 40, Wallingford CT 06492
  
  
 ---------------------------------------------------------------
 Warning -- This program may not be used in any manner that
 competes with the business of Gaussian, Inc. or will provide
 assistance to any competitor of Gaussian, Inc.  The licensee
 of this program is prohibited from giving any competitor of
 Gaussian, Inc. access to this program.  By using this program,
 the user acknowledges that Gaussian, Inc. is engaged in the
 business of creating and licensing software in the field of
 computational chemistry and represents and warrants to the
 licensee that it is not a competitor of Gaussian, Inc. and that
 it will not use this program in any manner prohibited above.
 ---------------------------------------------------------------
  

 Cite this work as:
 Gaussian 09, Revision C.01,
 M. J. Frisch, G. W. Trucks, H. B. Schlegel, G. E. Scuseria, 
 M. A. Robb, J. R. Cheeseman, G. Scalmani, V. Barone, B. Mennucci, 
 G. A. Petersson, H. Nakatsuji, M. Caricato, X. Li, H. P. Hratchian, 
 A. F. Izmaylov, J. Bloino, G. Zheng, J. L. Sonnenberg, M. Hada, 
 M. Ehara, K. Toyota, R. Fukuda, J. Hasegawa, M. Ishida, T. Nakajima, 
 Y. Honda, O. Kitao, H. Nakai, T. Vreven, J. A. Montgomery, Jr., 
 J. E. Peralta, F. Ogliaro, M. Bearpark, J. J. Heyd, E. Brothers, 
 K. N. Kudin, V. N. Staroverov, T. Keith, R. Kobayashi, J. Normand, 
 K. Raghavachari, A. Rendell, J. C. Burant, S. S. Iyengar, J. Tomasi, 
 M. Cossi, N. Rega, J. M. Millam, M. Klene, J. E. Knox, J. B. Cross, 
 V. Bakken, C. Adamo, J. Jaramillo, R. Gomperts, R. E. Stratmann, 
 O. Yazyev, A. J. Austin, R. Cammi, C. Pomelli, J. W. Ochterski, 
 R. L. Martin, K. Morokuma, V. G. Zakrzewski, G. A. Voth, 
 P. Salvador, J. J. Dannenberg, S. Dapprich, A. D. Daniels, 
 O. Farkas, J. B. Foresman, J. V. Ortiz, J. Cioslowski, 
 and D. J. Fox, Gaussian, Inc., Wallingford CT, 2010.
 
 ******************************************
 Gaussian 09:  EM64L-G09RevC.01 23-Sep-2011
                 2-Mar-2021 
 ******************************************
 %chk=octa_1,2,3-cis.chk
 -----------------------------------------
 # b3lyp/6-31g* geom=connectivity opt freq
 -----------------------------------------
 1/14=-1,18=20,19=15,26=3,38=1,57=2/1,3;
 2/9=110,12=2,17=6,18=5,40=1/2;
 3/5=1,6=6,7=1,11=2,16=1,25=1,30=1,71=1,74=-5/1,2,3;
 4//1;
 5/5=2,38=5/2;
 6/7=2,8=2,9=2,10=2,28=1/1;
 7//1,2,3,16;
 1/14=-1,18=20,19=15/3(2);
 2/9=110/2;
 99//99;
 2/9=110/2;
 3/5=1,6=6,7=1,11=2,16=1,25=1,30=1,71=1,74=-5/1,2,3;
 4/5=5,16=3/1;
 5/5=2,38=5/2;
 7//1,2,3,16;
 1/14=-1,18=20,19=15/3(-5);
 2/9=110/2;
 6/7=2,8=2,9=2,10=2,19=2,28=1/1;
 99/9=1/99;
 -------------------
 Title Card Required
 -------------------
 Charge =  0 Multiplicity = 1
 Symbolic Z-Matrix:
 C                     0.       -3.66126   0.57714 
 H                     0.       -4.72738   0.58647 
 H                     0.       -3.12478   1.49957 
 C                     0.       -2.98811  -0.59896 
 H                     0.       -3.5246   -1.52139 
 C                     0.       -1.4537   -0.61238 
 H                     0.       -0.93344  -1.54406 
 C                     0.       -0.76008   0.55176 
 H                     0.       -1.27041   1.47408 
 C                     0.        0.76008   0.55176 
 H                     0.        1.27041   1.47408 
 C                     0.        1.4537   -0.61238 
 H                     0.        0.93344  -1.54406 
 C                     0.        2.98811  -0.59896 
 H                     0.        3.5246   -1.52139 
 C                     0.        3.66126   0.57714 
 H                     0.        4.72738   0.58647 
 H                     0.        3.12478   1.49957 
 

 GradGradGradGradGradGradGradGradGradGradGradGradGradGradGradGradGradGrad
 Berny optimization.
 Initialization pass.
                           ----------------------------
                           !    Initial Parameters    !
                           ! (Angstroms and Degrees)  !
 --------------------------                            --------------------------
 ! Name  Definition              Value          Derivative Info.                !
 --------------------------------------------------------------------------------
 ! R1    R(1,2)                  1.0662         estimate D2E/DX2                !
 ! R2    R(1,3)                  1.0671         estimate D2E/DX2                !
 ! R3    R(1,4)                  1.3551         estimate D2E/DX2                !
 ! R4    R(4,5)                  1.0671         estimate D2E/DX2                !
 ! R5    R(4,6)                  1.5345         estimate D2E/DX2                !
 ! R6    R(6,7)                  1.0671         estimate D2E/DX2                !
 ! R7    R(6,8)                  1.3551         estimate D2E/DX2                !
 ! R8    R(8,9)                  1.0541         estimate D2E/DX2                !
 ! R9    R(8,10)                 1.5202         estimate D2E/DX2                !
 ! R10   R(10,11)                1.0541         estimate D2E/DX2                !
 ! R11   R(10,12)                1.3551         estimate D2E/DX2                !
 ! R12   R(12,13)                1.0671         estimate D2E/DX2                !
 ! R13   R(12,14)                1.5345         estimate D2E/DX2                !
 ! R14   R(14,15)                1.0671         estimate D2E/DX2                !
 ! R15   R(14,16)                1.3551         estimate D2E/DX2                !
 ! R16   R(16,17)                1.0662         estimate D2E/DX2                !
 ! R17   R(16,18)                1.0671         estimate D2E/DX2                !
 ! A1    A(2,1,3)              119.6808         estimate D2E/DX2                !
 ! A2    A(2,1,4)              120.2859         estimate D2E/DX2                !
 ! A3    A(3,1,4)              120.0332         estimate D2E/DX2                !
 ! A4    A(1,4,5)              120.0332         estimate D2E/DX2                !
 ! A5    A(1,4,6)              120.2859         estimate D2E/DX2                !
 ! A6    A(5,4,6)              119.6808         estimate D2E/DX2                !
 ! A7    A(4,6,7)              119.6808         estimate D2E/DX2                !
 ! A8    A(4,6,8)              120.2859         estimate D2E/DX2                !
 ! A9    A(7,6,8)              120.0332         estimate D2E/DX2                !
 ! A10   A(6,8,9)              120.2567         estimate D2E/DX2                !
 ! A11   A(6,8,10)             120.7871         estimate D2E/DX2                !
 ! A12   A(9,8,10)             118.9562         estimate D2E/DX2                !
 ! A13   A(8,10,11)            118.9562         estimate D2E/DX2                !
 ! A14   A(8,10,12)            120.7871         estimate D2E/DX2                !
 ! A15   A(11,10,12)           120.2567         estimate D2E/DX2                !
 ! A16   A(10,12,13)           120.0332         estimate D2E/DX2                !
 ! A17   A(10,12,14)           120.2859         estimate D2E/DX2                !
 ! A18   A(13,12,14)           119.6808         estimate D2E/DX2                !
 ! A19   A(12,14,15)           119.6808         estimate D2E/DX2                !
 ! A20   A(12,14,16)           120.2859         estimate D2E/DX2                !
 ! A21   A(15,14,16)           120.0332         estimate D2E/DX2                !
 ! A22   A(14,16,17)           120.2859         estimate D2E/DX2                !
 ! A23   A(14,16,18)           120.0332         estimate D2E/DX2                !
 ! A24   A(17,16,18)           119.6808         estimate D2E/DX2                !
 ! D1    D(2,1,4,5)              0.0            estimate D2E/DX2                !
 ! D2    D(2,1,4,6)            180.0            estimate D2E/DX2                !
 ! D3    D(3,1,4,5)            180.0            estimate D2E/DX2                !
 ! D4    D(3,1,4,6)              0.0            estimate D2E/DX2                !
 ! D5    D(1,4,6,7)            180.0            estimate D2E/DX2                !
 ! D6    D(1,4,6,8)              0.0            estimate D2E/DX2                !
 ! D7    D(5,4,6,7)              0.0            estimate D2E/DX2                !
 ! D8    D(5,4,6,8)            180.0            estimate D2E/DX2                !
 ! D9    D(4,6,8,9)              0.0            estimate D2E/DX2                !
 ! D10   D(4,6,8,10)           180.0            estimate D2E/DX2                !
 ! D11   D(7,6,8,9)            180.0            estimate D2E/DX2                !
 ! D12   D(7,6,8,10)             0.0            estimate D2E/DX2                !
 ! D13   D(6,8,10,11)          180.0            estimate D2E/DX2                !
 ! D14   D(6,8,10,12)            0.0            estimate D2E/DX2                !
 ! D15   D(9,8,10,11)            0.0            estimate D2E/DX2                !
 ! D16   D(9,8,10,12)          180.0            estimate D2E/DX2                !
 ! D17   D(8,10,12,13)           0.0            estimate D2E/DX2                !
 ! D18   D(8,10,12,14)         180.0            estimate D2E/DX2                !
 ! D19   D(11,10,12,13)        180.0            estimate D2E/DX2                !
 ! D20   D(11,10,12,14)          0.0            estimate D2E/DX2                !
 ! D21   D(10,12,14,15)        180.0            estimate D2E/DX2                !
 ! D22   D(10,12,14,16)          0.0            estimate D2E/DX2                !
 ! D23   D(13,12,14,15)          0.0            estimate D2E/DX2                !
 ! D24   D(13,12,14,16)        180.0            estimate D2E/DX2                !
 ! D25   D(12,14,16,17)        180.0            estimate D2E/DX2                !
 ! D26   D(12,14,16,18)          0.0            estimate D2E/DX2                !
 ! D27   D(15,14,16,17)          0.0            estimate D2E/DX2                !
 ! D28   D(15,14,16,18)        180.0            estimate D2E/DX2                !
 --------------------------------------------------------------------------------
 Trust Radius=3.00D-01 FncErr=1.00D-07 GrdErr=1.00D-06
 Number of steps in this run=     79 maximum allowed number of steps=    108.
 GradGradGradGradGradGradGradGradGradGradGradGradGradGradGradGradGradGrad

                          Input orientation:                          
 ---------------------------------------------------------------------
 Center     Atomic      Atomic             Coordinates (Angstroms)
 Number     Number       Type             X           Y           Z
 ---------------------------------------------------------------------
      1          6           0        0.000000   -3.661257    0.577140
      2          1           0        0.000000   -4.727378    0.586466
      3          1           0        0.000000   -3.124776    1.499572
      4          6           0        0.000000   -2.988115   -0.598961
      5          1           0        0.000000   -3.524596   -1.521393
      6          6           0        0.000000   -1.453698   -0.612384
      7          1           0        0.000000   -0.933437   -1.544060
      8          6           0        0.000000   -0.760084    0.551761
      9          1           0        0.000000   -1.270410    1.474078
     10          6           0        0.000000    0.760084    0.551761
     11          1           0        0.000000    1.270410    1.474078
     12          6           0        0.000000    1.453698   -0.612384
     13          1           0        0.000000    0.933437   -1.544060
     14          6           0        0.000000    2.988115   -0.598961
     15          1           0        0.000000    3.524596   -1.521393
     16          6           0        0.000000    3.661257    0.577140
     17          1           0        0.000000    4.727378    0.586466
     18          1           0        0.000000    3.124776    1.499572
 ---------------------------------------------------------------------
                    Distance matrix (angstroms):
                    1          2          3          4          5
     1  C    0.000000
     2  H    1.066161   0.000000
     3  H    1.067095   1.844477   0.000000
     4  C    1.355114   2.104822   2.102978   0.000000
     5  H    2.102978   2.426882   3.047308   1.067095   0.000000
     6  C    2.507645   3.486290   2.693113   1.534475   2.261618
     7  H    3.455502   4.351222   3.750422   2.261618   2.591259
     8  C    2.901285   3.967446   2.547571   2.507645   3.455502
     9  H    2.553556   3.569101   1.854542   2.692211   3.748893
    10  C    4.421414   5.487571   3.998810   3.920861   4.759879
    11  H    5.012568   6.063111   4.395260   4.736298   5.653753
    12  C    5.251451   6.296265   5.042101   4.441834   5.060604
    13  H    5.060702   6.048468   5.072750   4.033829   4.458091
    14  C    6.752582   7.806028   6.463070   5.976230   6.577711
    15  H    7.486009   8.516933   7.303450   6.577711   7.049192
    16  C    7.322515   8.388641   6.848440   6.752582   7.486009
    17  H    8.388641   9.454756   7.905067   7.806028   8.516933
    18  H    6.848440   7.905067   6.249552   6.463070   7.303450
                    6          7          8          9         10
     6  C    0.000000
     7  H    1.067095   0.000000
     8  C    1.355114   2.102978   0.000000
     9  H    2.094497   3.036891   1.054088   0.000000
    10  C    2.501212   2.694527   1.520167   2.230151   0.000000
    11  H    3.431339   3.737124   2.230151   2.540820   1.054088
    12  C    2.907397   2.562506   2.501212   3.431339   1.355114
    13  H    2.562506   1.866873   2.694527   3.737124   2.102978
    14  C    4.441834   4.033829   3.920861   4.736298   2.507645
    15  H    5.060604   4.458091   4.759879   5.653753   3.455502
    16  C    5.251451   5.060702   4.421414   5.012568   2.901285
    17  H    6.296265   6.048468   5.487571   6.063111   3.967446
    18  H    5.042101   5.072750   3.998810   4.395260   2.547571
                   11         12         13         14         15
    11  H    0.000000
    12  C    2.094497   0.000000
    13  H    3.036891   1.067095   0.000000
    14  C    2.692211   1.534475   2.261618   0.000000
    15  H    3.748893   2.261618   2.591259   1.067095   0.000000
    16  C    2.553556   2.507645   3.455502   1.355114   2.102978
    17  H    3.569101   3.486290   4.351222   2.104822   2.426882
    18  H    1.854542   2.693113   3.750422   2.102978   3.047308
                   16         17         18
    16  C    0.000000
    17  H    1.066161   0.000000
    18  H    1.067095   1.844477   0.000000
 Stoichiometry    C8H10
 Framework group  C2V[SGV(C8H10)]
 Deg. of freedom    17
 Full point group                 C2V     NOp   4
 Largest Abelian subgroup         C2V     NOp   4
 Largest concise Abelian subgroup C2      NOp   2
                         Standard orientation:                         
 ---------------------------------------------------------------------
 Center     Atomic      Atomic             Coordinates (Angstroms)
 Number     Number       Type             X           Y           Z
 ---------------------------------------------------------------------
      1          6           0        0.000000    3.661257   -0.577140
      2          1           0        0.000000    4.727378   -0.586466
      3          1           0        0.000000    3.124776   -1.499572
      4          6           0        0.000000    2.988115    0.598961
      5          1           0        0.000000    3.524596    1.521393
      6          6           0        0.000000    1.453698    0.612384
      7          1           0        0.000000    0.933437    1.544060
      8          6           0        0.000000    0.760084   -0.551761
      9          1           0        0.000000    1.270410   -1.474078
     10          6           0        0.000000   -0.760084   -0.551761
     11          1           0        0.000000   -1.270410   -1.474078
     12          6           0        0.000000   -1.453698    0.612384
     13          1           0        0.000000   -0.933437    1.544060
     14          6           0        0.000000   -2.988115    0.598961
     15          1           0        0.000000   -3.524596    1.521393
     16          6           0        0.000000   -3.661257   -0.577140
     17          1           0        0.000000   -4.727378   -0.586466
     18          1           0        0.000000   -3.124776   -1.499572
 ---------------------------------------------------------------------
 Rotational constants (GHZ):      9.7227806      0.7267802      0.6762317
 Standard basis: 6-31G(d) (6D, 7F)
 There are    54 symmetry adapted basis functions of A1  symmetry.
 There are    16 symmetry adapted basis functions of A2  symmetry.
 There are    16 symmetry adapted basis functions of B1  symmetry.
 There are    54 symmetry adapted basis functions of B2  symmetry.
 Integral buffers will be    131072 words long.
 Raffenetti 2 integral format.
 Two-electron integral symmetry is turned on.
   140 basis functions,   264 primitive gaussians,   140 cartesian basis functions
    29 alpha electrons       29 beta electrons
       nuclear repulsion energy       306.1200542238 Hartrees.
 NAtoms=   18 NActive=   18 NUniq=    9 SFac= 4.00D+00 NAtFMM=   60 NAOKFM=F Big=F
 One-electron integrals computed using PRISM.
 NBasis=   140 RedAO= T  NBF=    54    16    16    54
 NBsUse=   140 1.00D-06 NBFU=    54    16    16    54
 Harris functional with IExCor=  402 diagonalized for initial guess.
 ExpMin= 1.61D-01 ExpMax= 3.05D+03 ExpMxC= 4.57D+02 IAcc=1 IRadAn=         1 AccDes= 0.00D+00
 HarFok:  IExCor=  402 AccDes= 0.00D+00 IRadAn=         1 IDoV= 1
 ScaDFX=  1.000000  1.000000  1.000000  1.000000
 FoFCou: FMM=F IPFlag=           0 FMFlag=      100000 FMFlg1=           0
         NFxFlg=           0 DoJE=T BraDBF=F KetDBF=T FulRan=T
         Omega=  0.000000  0.000000  1.000000  0.000000  0.000000 ICntrl=     500 IOpCl=  0
         NMat0=    1 NMatS0=    1 NMatT0=    0 NMatD0=    1 NMtDS0=    0 NMtDT0=    0
         I1Cent=           4 NGrid=           0.
 Petite list used in FoFCou.
 Initial guess orbital symmetries:
       Occupied  (B2) (A1) (A1) (B2) (B2) (A1) (B2) (A1) (A1) (B2)
                 (A1) (B2) (A1) (B2) (A1) (A1) (B2) (B2) (A1) (B2)
                 (A1) (A1) (B2) (B2) (A1) (B1) (A2) (B1) (A2)
       Virtual   (B1) (A2) (B1) (A2) (A1) (B2) (A1) (B2) (B2) (A1)
                 (A1) (A1) (B2) (A1) (B2) (B2) (B2) (A1) (B2) (A1)
                 (A1) (B2) (B1) (A2) (A1) (B2) (A1) (B2) (B1) (A1)
                 (B2) (A1) (A2) (B1) (A1) (B2) (B1) (A2) (A2) (B2)
                 (A1) (A1) (B2) (B2) (A1) (B2) (A1) (A1) (B2) (B2)
                 (A1) (B2) (A1) (B2) (A1) (B2) (A1) (B2) (A1) (B2)
                 (B1) (A2) (B1) (B1) (A2) (A1) (A2) (B1) (B2) (B2)
                 (A2) (B1) (A1) (B2) (A1) (A1) (B2) (A1) (B2) (A2)
                 (A1) (B1) (B2) (A1) (A1) (B2) (A2) (B1) (B2) (A2)
                 (A1) (B1) (B2) (A2) (A1) (B2) (A1) (B2) (A1) (B2)
                 (A1) (B2) (B2) (A1) (B2) (A1) (B2) (A1) (B2) (A1)
                 (B2)
 The electronic state of the initial guess is 1-A1.
 Requested convergence on RMS density matrix=1.00D-08 within 128 cycles.
 Requested convergence on MAX density matrix=1.00D-06.
 Requested convergence on             energy=1.00D-06.
 No special actions if energy rises.
 Integral accuracy reduced to 1.0D-05 until final iterations.
 Initial convergence to 1.0D-05 achieved.  Increase integral accuracy.
 SCF Done:  E(RB3LYP) =  -310.762526263     A.U. after   13 cycles
             Convg  =    0.8211D-08             -V/T =  2.0102

 **********************************************************************

            Population analysis using the SCF density.

 **********************************************************************

 Orbital symmetries:
       Occupied  (B2) (A1) (A1) (B2) (A1) (B2) (B2) (A1) (A1) (B2)
                 (A1) (B2) (A1) (B2) (A1) (B2) (A1) (B2) (A1) (B2)
                 (A1) (A1) (B2) (B2) (A1) (B1) (A2) (B1) (A2)
       Virtual   (B1) (A2) (B1) (A1) (A2) (B2) (A1) (B2) (A1) (B2)
                 (A1) (A1) (B2) (B2) (A1) (B2) (A1) (B2) (B2) (A1)
                 (A1) (B2) (B1) (A2) (A1) (A1) (B2) (B1) (B2) (A1)
                 (A2) (B1) (B2) (A1) (B1) (A1) (B2) (A2) (A2) (A1)
                 (B2) (A1) (B2) (B2) (A1) (B2) (A1) (A1) (B2) (B2)
                 (A1) (B2) (A1) (B2) (A1) (B2) (B2) (A1) (A1) (B2)
                 (B1) (A2) (B1) (A1) (A2) (B1) (B2) (A2) (B2) (B1)
                 (A2) (B1) (A1) (B2) (A1) (A1) (B2) (A1) (B2) (A2)
                 (A1) (B1) (B2) (A1) (A1) (B2) (A2) (B1) (B2) (A2)
                 (A1) (B1) (B2) (A2) (A1) (A1) (B2) (B2) (A1) (B2)
                 (A1) (B2) (B2) (A1) (B2) (A1) (B2) (A1) (B2) (A1)
                 (B2)
 The electronic state is 1-A1.
 Alpha  occ. eigenvalues --  -10.19584 -10.19584 -10.19218 -10.19216 -10.19117
 Alpha  occ. eigenvalues --  -10.19097 -10.17758 -10.17758  -0.81638  -0.78673
 Alpha  occ. eigenvalues --   -0.74492  -0.69445  -0.63431  -0.59427  -0.55393
 Alpha  occ. eigenvalues --   -0.50989  -0.50502  -0.46049  -0.45261  -0.42271
 Alpha  occ. eigenvalues --   -0.40896  -0.38044  -0.35958  -0.35288  -0.34277
 Alpha  occ. eigenvalues --   -0.33443  -0.30117  -0.25257  -0.19454
 Alpha virt. eigenvalues --   -0.05751   0.00410   0.06626   0.09443   0.12130
 Alpha virt. eigenvalues --    0.12253   0.12412   0.13035   0.15466   0.18793
 Alpha virt. eigenvalues --    0.19713   0.20392   0.23650   0.26592   0.26965
 Alpha virt. eigenvalues --    0.30144   0.31284   0.32903   0.40158   0.42362
 Alpha virt. eigenvalues --    0.46286   0.47779   0.52037   0.53840   0.55346
 Alpha virt. eigenvalues --    0.57287   0.57796   0.58399   0.58861   0.60529
 Alpha virt. eigenvalues --    0.63564   0.63602   0.63681   0.65063   0.66946
 Alpha virt. eigenvalues --    0.67392   0.68024   0.68130   0.72343   0.82826
 Alpha virt. eigenvalues --    0.83543   0.87035   0.88011   0.89832   0.90671
 Alpha virt. eigenvalues --    0.92998   0.94002   0.95796   0.96365   0.99512
 Alpha virt. eigenvalues --    1.00093   1.04555   1.06330   1.08172   1.08414
 Alpha virt. eigenvalues --    1.13405   1.17098   1.17809   1.23866   1.26237
 Alpha virt. eigenvalues --    1.32402   1.36656   1.36978   1.47414   1.47880
 Alpha virt. eigenvalues --    1.48141   1.52407   1.55295   1.55705   1.56204
 Alpha virt. eigenvalues --    1.69186   1.71010   1.74418   1.77215   1.77276
 Alpha virt. eigenvalues --    1.92021   1.96168   1.96411   2.00372   2.02446
 Alpha virt. eigenvalues --    2.05586   2.13027   2.15583   2.17234   2.21414
 Alpha virt. eigenvalues --    2.21846   2.23088   2.24504   2.25410   2.36393
 Alpha virt. eigenvalues --    2.41877   2.44843   2.49446   2.52360   2.55405
 Alpha virt. eigenvalues --    2.58840   2.59399   2.68459   2.80791   2.81443
 Alpha virt. eigenvalues --    2.96196   3.02174   3.13619   4.05614   4.07677
 Alpha virt. eigenvalues --    4.10892   4.17448   4.18334   4.32523   4.43149
 Alpha virt. eigenvalues --    4.53981
          Condensed to atoms (all electrons):
              1          2          3          4          5          6
     1  C    5.051374   0.368087   0.363532   0.653785  -0.054867  -0.038748
     2  H    0.368087   0.556559  -0.040884  -0.025300  -0.006643   0.004507
     3  H    0.363532  -0.040884   0.565124  -0.029661   0.006282  -0.019259
     4  C    0.653785  -0.025300  -0.029661   4.795549   0.365901   0.409778
     5  H   -0.054867  -0.006643   0.006282   0.365901   0.595975  -0.040283
     6  C   -0.038748   0.004507  -0.019259   0.409778  -0.040283   4.915801
     7  H    0.004973  -0.000126  -0.000032  -0.041977  -0.003597   0.354834
     8  C   -0.022403   0.000280   0.005822  -0.024345   0.004492   0.636167
     9  H    0.003631  -0.000016   0.005300  -0.013654   0.000015  -0.053398
    10  C    0.000511  -0.000006   0.000108   0.003863  -0.000110  -0.030639
    11  H    0.000002   0.000000   0.000016  -0.000107   0.000002   0.004786
    12  C   -0.000008   0.000000   0.000002   0.000423   0.000004  -0.020479
    13  H   -0.000001   0.000000   0.000002   0.000126   0.000016   0.004380
    14  C    0.000000   0.000000   0.000000  -0.000005   0.000000   0.000423
    15  H    0.000000   0.000000   0.000000   0.000000   0.000000   0.000004
    16  C    0.000000   0.000000   0.000000   0.000000   0.000000  -0.000008
    17  H    0.000000   0.000000   0.000000   0.000000   0.000000   0.000000
    18  H    0.000000   0.000000   0.000000   0.000000   0.000000   0.000002
              7          8          9         10         11         12
     1  C    0.004973  -0.022403   0.003631   0.000511   0.000002  -0.000008
     2  H   -0.000126   0.000280  -0.000016  -0.000006   0.000000   0.000000
     3  H   -0.000032   0.005822   0.005300   0.000108   0.000016   0.000002
     4  C   -0.041977  -0.024345  -0.013654   0.003863  -0.000107   0.000423
     5  H   -0.003597   0.004492   0.000015  -0.000110   0.000002   0.000004
     6  C    0.354834   0.636167  -0.053398  -0.030639   0.004786  -0.020479
     7  H    0.605086  -0.050653   0.006927  -0.015293  -0.000032   0.004380
     8  C   -0.050653   4.900114   0.356052   0.404105  -0.039831  -0.030639
     9  H    0.006927   0.356052   0.605542  -0.039831  -0.004333   0.004786
    10  C   -0.015293   0.404105  -0.039831   4.900114   0.356052   0.636167
    11  H   -0.000032  -0.039831  -0.004333   0.356052   0.605542  -0.053398
    12  C    0.004380  -0.030639   0.004786   0.636167  -0.053398   4.915801
    13  H    0.004118  -0.015293  -0.000032  -0.050653   0.006927   0.354834
    14  C    0.000126   0.003863  -0.000107  -0.024345  -0.013654   0.409778
    15  H    0.000016  -0.000110   0.000002   0.004492   0.000015  -0.040283
    16  C   -0.000001   0.000511   0.000002  -0.022403   0.003631  -0.038748
    17  H    0.000000  -0.000006   0.000000   0.000280  -0.000016   0.004507
    18  H    0.000002   0.000108   0.000016   0.005822   0.005300  -0.019259
             13         14         15         16         17         18
     1  C   -0.000001   0.000000   0.000000   0.000000   0.000000   0.000000
     2  H    0.000000   0.000000   0.000000   0.000000   0.000000   0.000000
     3  H    0.000002   0.000000   0.000000   0.000000   0.000000   0.000000
     4  C    0.000126  -0.000005   0.000000   0.000000   0.000000   0.000000
     5  H    0.000016   0.000000   0.000000   0.000000   0.000000   0.000000
     6  C    0.004380   0.000423   0.000004  -0.000008   0.000000   0.000002
     7  H    0.004118   0.000126   0.000016  -0.000001   0.000000   0.000002
     8  C   -0.015293   0.003863  -0.000110   0.000511  -0.000006   0.000108
     9  H   -0.000032  -0.000107   0.000002   0.000002   0.000000   0.000016
    10  C   -0.050653  -0.024345   0.004492  -0.022403   0.000280   0.005822
    11  H    0.006927  -0.013654   0.000015   0.003631  -0.000016   0.005300
    12  C    0.354834   0.409778  -0.040283  -0.038748   0.004507  -0.019259
    13  H    0.605086  -0.041977  -0.003597   0.004973  -0.000126  -0.000032
    14  C   -0.041977   4.795549   0.365901   0.653785  -0.025300  -0.029661
    15  H   -0.003597   0.365901   0.595975  -0.054867  -0.006643   0.006282
    16  C    0.004973   0.653785  -0.054867   5.051374   0.368087   0.363532
    17  H   -0.000126  -0.025300  -0.006643   0.368087   0.556559  -0.040884
    18  H   -0.000032  -0.029661   0.006282   0.363532  -0.040884   0.565124
 Mulliken atomic charges:
              1
     1  C   -0.329868
     2  H    0.143541
     3  H    0.143649
     4  C   -0.094378
     5  H    0.132813
     6  C   -0.127870
     7  H    0.131247
     8  C   -0.128234
     9  H    0.129099
    10  C   -0.128234
    11  H    0.129099
    12  C   -0.127870
    13  H    0.131247
    14  C   -0.094378
    15  H    0.132813
    16  C   -0.329868
    17  H    0.143541
    18  H    0.143649
 Sum of Mulliken atomic charges =   0.00000
 Mulliken charges with hydrogens summed into heavy atoms:
              1
     1  C   -0.042678
     4  C    0.038435
     6  C    0.003377
     8  C    0.000866
    10  C    0.000866
    12  C    0.003377
    14  C    0.038435
    16  C   -0.042678
 Sum of Mulliken charges with hydrogens summed into heavy atoms =   0.00000
 Electronic spatial extent (au):  <R**2>=           1639.6819
 Charge=              0.0000 electrons
 Dipole moment (field-independent basis, Debye):
    X=              0.0000    Y=              0.0000    Z=              0.1322  Tot=              0.1322
 Quadrupole moment (field-independent basis, Debye-Ang):
   XX=            -53.7057   YY=            -44.8058   ZZ=            -42.8829
   XY=              0.0000   XZ=              0.0000   YZ=              0.0000
 Traceless Quadrupole moment (field-independent basis, Debye-Ang):
   XX=             -6.5742   YY=              2.3257   ZZ=              4.2486
   XY=              0.0000   XZ=              0.0000   YZ=              0.0000
 Octapole moment (field-independent basis, Debye-Ang**2):
  XXX=              0.0000  YYY=              0.0000  ZZZ=              0.9395  XYY=              0.0000
  XXY=              0.0000  XXZ=              0.1314  XZZ=              0.0000  YZZ=              0.0000
  YYZ=              3.0363  XYZ=              0.0000
 Hexadecapole moment (field-independent basis, Debye-Ang**3):
 XXXX=            -55.8035 YYYY=          -1834.5630 ZZZZ=           -199.8311 XXXY=              0.0000
 XXXZ=              0.0000 YYYX=              0.0000 YYYZ=              0.0000 ZZZX=              0.0000
 ZZZY=              0.0000 XXYY=           -383.5281 XXZZ=            -46.8527 YYZZ=           -340.5878
 XXYZ=              0.0000 YYXZ=              0.0000 ZZXY=              0.0000
 N-N= 3.061200542238D+02 E-N=-1.330779839566D+03  KE= 3.076260422570D+02
 Symmetry A1   KE= 1.504597224743D+02
 Symmetry A2   KE= 4.434972104543D+00
 Symmetry B1   KE= 4.057696293687D+00
 Symmetry B2   KE= 1.486736513845D+02
 Calling FoFJK, ICntrl=      2127 FMM=F ISym2X=1 I1Cent= 0 IOpClX= 0 NMat=1 NMatS=1 NMatT=0.
 ***** Axes restored to original set *****
 -------------------------------------------------------------------
 Center     Atomic                   Forces (Hartrees/Bohr)
 Number     Number              X              Y              Z
 -------------------------------------------------------------------
      1        6           0.000000000    0.008629500   -0.033673146
      2        1           0.000000000   -0.013961507    0.003562555
      3        1           0.000000000   -0.001312763    0.013089475
      4        6           0.000000000    0.036314644    0.032089434
      5        1           0.000000000   -0.004236160   -0.013894555
      6        6           0.000000000   -0.048046409    0.027086913
      7        1           0.000000000   -0.000201247   -0.012622901
      8        6           0.000000000    0.050666257   -0.036863284
      9        1           0.000000000   -0.005606609    0.021225508
     10        6           0.000000000   -0.050666257   -0.036863284
     11        1           0.000000000    0.005606609    0.021225508
     12        6           0.000000000    0.048046409    0.027086913
     13        1           0.000000000    0.000201247   -0.012622901
     14        6           0.000000000   -0.036314644    0.032089434
     15        1           0.000000000    0.004236160   -0.013894555
     16        6           0.000000000   -0.008629500   -0.033673146
     17        1           0.000000000    0.013961507    0.003562555
     18        1           0.000000000    0.001312763    0.013089475
 -------------------------------------------------------------------
 Cartesian Forces:  Max     0.050666257 RMS     0.020868171

 GradGradGradGradGradGradGradGradGradGradGradGradGradGradGradGradGradGrad
 Berny optimization.
 Internal  Forces:  Max     0.032265369 RMS     0.013425640
 Search for a local minimum.
 Step number   1 out of a maximum of   79
 All quantities printed in internal units (Hartrees-Bohrs-Radians)
 Mixed Optimization -- RFO/linear search
 Second derivative matrix not updated -- first step.
 ITU=  0
     Eigenvalues ---    0.00310   0.00310   0.00499   0.01500   0.01500
     Eigenvalues ---    0.01500   0.01500   0.01605   0.01605   0.02683
     Eigenvalues ---    0.02683   0.02683   0.02683   0.02683   0.02683
     Eigenvalues ---    0.16000   0.16000   0.16000   0.16000   0.16000
     Eigenvalues ---    0.16000   0.16000   0.16000   0.16000   0.16000
     Eigenvalues ---    0.22000   0.22000   0.22000   0.22000   0.22000
     Eigenvalues ---    0.22000   0.29014   0.29014   0.30350   0.37600
     Eigenvalues ---    0.37600   0.37600   0.37600   0.37600   0.37600
     Eigenvalues ---    0.37719   0.37719   0.39316   0.39316   0.53947
     Eigenvalues ---    0.53947   0.53947   0.53947
 RFO step:  Lambda=-4.27609086D-02 EMin= 3.09906363D-03
 Linear search not attempted -- first point.
 Maximum step size (   0.300) exceeded in Quadratic search.
    -- Step size scaled by   0.767
 Iteration  1 RMS(Cart)=  0.13314034 RMS(Int)=  0.00393096
 Iteration  2 RMS(Cart)=  0.00547628 RMS(Int)=  0.00000754
 Iteration  3 RMS(Cart)=  0.00002109 RMS(Int)=  0.00000000
 Iteration  4 RMS(Cart)=  0.00000000 RMS(Int)=  0.00000000
 ClnCor:  largest displacement from symmetrization is 2.28D-10 for atom     1.
 Variable       Old X    -DE/DX   Delta X   Delta X   Delta X     New X
                                 (Linear)    (Quad)   (Total)
    R1        2.01475   0.01399   0.00000   0.02555   0.02555   2.04030
    R2        2.01652   0.01065   0.00000   0.01951   0.01951   2.03603
    R3        2.56079  -0.01147   0.00000  -0.01511  -0.01511   2.54569
    R4        2.01652   0.01414   0.00000   0.02589   0.02589   2.04241
    R5        2.89974  -0.02542   0.00000  -0.05855  -0.05855   2.84118
    R6        2.01652   0.01092   0.00000   0.02000   0.02000   2.03652
    R7        2.56079  -0.00176   0.00000  -0.00231  -0.00231   2.55848
    R8        1.99194   0.02129   0.00000   0.03744   0.03744   2.02938
    R9        2.87270  -0.02225   0.00000  -0.04926  -0.04926   2.82344
   R10        1.99194   0.02129   0.00000   0.03744   0.03744   2.02938
   R11        2.56079  -0.00176   0.00000  -0.00231  -0.00231   2.55848
   R12        2.01652   0.01092   0.00000   0.02000   0.02000   2.03652
   R13        2.89974  -0.02542   0.00000  -0.05855  -0.05855   2.84118
   R14        2.01652   0.01414   0.00000   0.02589   0.02589   2.04241
   R15        2.56079  -0.01147   0.00000  -0.01511  -0.01511   2.54569
   R16        2.01475   0.01399   0.00000   0.02555   0.02555   2.04030
   R17        2.01652   0.01065   0.00000   0.01951   0.01951   2.03603
    A1        2.08882  -0.00750   0.00000  -0.02835  -0.02835   2.06048
    A2        2.09939  -0.00057   0.00000  -0.00214  -0.00214   2.09725
    A3        2.09498   0.00806   0.00000   0.03049   0.03049   2.12546
    A4        2.09498  -0.01278   0.00000  -0.03440  -0.03440   2.06057
    A5        2.09939   0.03227   0.00000   0.09415   0.09415   2.19354
    A6        2.08882  -0.01948   0.00000  -0.05975  -0.05975   2.02908
    A7        2.08882  -0.02016   0.00000  -0.06432  -0.06432   2.02450
    A8        2.09939   0.02755   0.00000   0.08038   0.08038   2.17976
    A9        2.09498  -0.00739   0.00000  -0.01605  -0.01605   2.07892
   A10        2.09888  -0.00835   0.00000  -0.01975  -0.01975   2.07913
   A11        2.10813   0.02740   0.00000   0.07995   0.07995   2.18809
   A12        2.07618  -0.01905   0.00000  -0.06020  -0.06020   2.01597
   A13        2.07618  -0.01905   0.00000  -0.06020  -0.06020   2.01597
   A14        2.10813   0.02740   0.00000   0.07995   0.07995   2.18809
   A15        2.09888  -0.00835   0.00000  -0.01975  -0.01975   2.07913
   A16        2.09498  -0.00739   0.00000  -0.01605  -0.01605   2.07892
   A17        2.09939   0.02755   0.00000   0.08038   0.08038   2.17976
   A18        2.08882  -0.02016   0.00000  -0.06432  -0.06432   2.02450
   A19        2.08882  -0.01948   0.00000  -0.05975  -0.05975   2.02908
   A20        2.09939   0.03227   0.00000   0.09415   0.09415   2.19354
   A21        2.09498  -0.01278   0.00000  -0.03440  -0.03440   2.06057
   A22        2.09939  -0.00057   0.00000  -0.00214  -0.00214   2.09725
   A23        2.09498   0.00806   0.00000   0.03049   0.03049   2.12546
   A24        2.08882  -0.00750   0.00000  -0.02835  -0.02835   2.06048
    D1        0.00000   0.00000   0.00000   0.00000   0.00000   0.00000
    D2        3.14159   0.00000   0.00000   0.00000   0.00000   3.14159
    D3        3.14159   0.00000   0.00000   0.00000   0.00000   3.14159
    D4        0.00000   0.00000   0.00000   0.00000   0.00000   0.00000
    D5        3.14159   0.00000   0.00000   0.00000   0.00000   3.14159
    D6        0.00000   0.00000   0.00000   0.00000   0.00000   0.00000
    D7        0.00000   0.00000   0.00000   0.00000   0.00000   0.00000
    D8        3.14159   0.00000   0.00000   0.00000   0.00000   3.14159
    D9        0.00000   0.00000   0.00000   0.00000   0.00000   0.00000
   D10        3.14159   0.00000   0.00000   0.00000   0.00000   3.14159
   D11        3.14159   0.00000   0.00000   0.00000   0.00000   3.14159
   D12        0.00000   0.00000   0.00000   0.00000   0.00000   0.00000
   D13        3.14159   0.00000   0.00000   0.00000   0.00000   3.14159
   D14        0.00000   0.00000   0.00000   0.00000   0.00000   0.00000
   D15        0.00000   0.00000   0.00000   0.00000   0.00000   0.00000
   D16        3.14159   0.00000   0.00000   0.00000   0.00000   3.14159
   D17        0.00000   0.00000   0.00000   0.00000   0.00000   0.00000
   D18        3.14159   0.00000   0.00000   0.00000   0.00000   3.14159
   D19        3.14159   0.00000   0.00000   0.00000   0.00000   3.14159
   D20        0.00000   0.00000   0.00000   0.00000   0.00000   0.00000
   D21        3.14159   0.00000   0.00000   0.00000   0.00000   3.14159
   D22        0.00000   0.00000   0.00000   0.00000   0.00000   0.00000
   D23        0.00000   0.00000   0.00000   0.00000   0.00000   0.00000
   D24        3.14159   0.00000   0.00000   0.00000   0.00000   3.14159
   D25        3.14159   0.00000   0.00000   0.00000   0.00000   3.14159
   D26        0.00000   0.00000   0.00000   0.00000   0.00000   0.00000
   D27        0.00000   0.00000   0.00000   0.00000   0.00000   0.00000
   D28        3.14159   0.00000   0.00000   0.00000   0.00000   3.14159
         Item               Value     Threshold  Converged?
 Maximum Force            0.032265     0.000450     NO 
 RMS     Force            0.013426     0.000300     NO 
 Maximum Displacement     0.500231     0.001800     NO 
 RMS     Displacement     0.133919     0.001200     NO 
 Predicted change in Energy=-2.214152D-02
 GradGradGradGradGradGradGradGradGradGradGradGradGradGradGradGradGradGrad

                          Input orientation:                          
 ---------------------------------------------------------------------
 Center     Atomic      Atomic             Coordinates (Angstroms)
 Number     Number       Type             X           Y           Z
 ---------------------------------------------------------------------
      1          6           0        0.000000   -3.810750    0.547826
      2          1           0        0.000000   -4.886255    0.452969
      3          1           0        0.000000   -3.389487    1.539476
      4          6           0        0.000000   -3.034155   -0.552916
      5          1           0        0.000000   -3.520354   -1.518179
      6          6           0        0.000000   -1.530718   -0.565426
      7          1           0        0.000000   -1.066450   -1.537973
      8          6           0        0.000000   -0.747050    0.538605
      9          1           0        0.000000   -1.209491    1.507837
     10          6           0        0.000000    0.747050    0.538605
     11          1           0        0.000000    1.209491    1.507837
     12          6           0        0.000000    1.530718   -0.565426
     13          1           0        0.000000    1.066450   -1.537973
     14          6           0        0.000000    3.034155   -0.552916
     15          1           0        0.000000    3.520354   -1.518179
     16          6           0        0.000000    3.810750    0.547826
     17          1           0        0.000000    4.886255    0.452969
     18          1           0        0.000000    3.389487    1.539476
 ---------------------------------------------------------------------
                    Distance matrix (angstroms):
                    1          2          3          4          5
     1  C    0.000000
     2  H    1.079680   0.000000
     3  H    1.077419   1.849544   0.000000
     4  C    1.347120   2.107624   2.122349   0.000000
     5  H    2.086313   2.398147   3.060454   1.080797   0.000000
     6  C    2.537297   3.506674   2.808137   1.503490   2.205990
     7  H    3.446990   4.307524   3.855800   2.200500   2.453985
     8  C    3.063714   4.140091   2.825635   2.534219   3.452764
     9  H    2.772755   3.825094   2.180225   2.752472   3.807475
    10  C    4.557809   5.633956   4.255899   3.935598   4.737204
    11  H    5.111208   6.186345   4.599087   4.717546   5.614999
    12  C    5.456244   6.497281   5.351544   4.564890   5.140143
    13  H    5.304491   6.276826   5.415354   4.217261   4.586847
    14  C    6.932846   7.984028   6.755833   6.068310   6.625204
    15  H    7.616657   8.634611   7.556134   6.625204   7.040709
    16  C    7.621500   8.697522   7.268203   6.932846   7.616657
    17  H    8.697522   9.772510   8.346760   7.984028   8.634611
    18  H    7.268203   8.346760   6.778974   6.755833   7.556134
                    6          7          8          9         10
     6  C    0.000000
     7  H    1.077679   0.000000
     8  C    1.353890   2.100997   0.000000
     9  H    2.098001   3.049167   1.073901   0.000000
    10  C    2.531227   2.756983   1.494100   2.183453   0.000000
    11  H    3.436155   3.802218   2.183453   2.418982   1.073901
    12  C    3.061435   2.773288   2.531227   3.436155   1.353890
    13  H    2.773288   2.132899   2.756983   3.802218   2.100997
    14  C    4.564890   4.217261   3.935598   4.717546   2.534219
    15  H    5.140143   4.586847   4.737204   5.614999   3.452764
    16  C    5.456244   5.304491   4.557809   5.111208   3.063714
    17  H    6.497281   6.276826   5.633956   6.186345   4.140091
    18  H    5.351544   5.415354   4.255899   4.599087   2.825635
                   11         12         13         14         15
    11  H    0.000000
    12  C    2.098001   0.000000
    13  H    3.049167   1.077679   0.000000
    14  C    2.752472   1.503490   2.200500   0.000000
    15  H    3.807475   2.205990   2.453985   1.080797   0.000000
    16  C    2.772755   2.537297   3.446990   1.347120   2.086313
    17  H    3.825094   3.506674   4.307524   2.107624   2.398147
    18  H    2.180225   2.808137   3.855800   2.122349   3.060454
                   16         17         18
    16  C    0.000000
    17  H    1.079680   0.000000
    18  H    1.077419   1.849544   0.000000
 Stoichiometry    C8H10
 Framework group  C2V[SGV(C8H10)]
 Deg. of freedom    17
 Full point group                 C2V     NOp   4
 Largest Abelian subgroup         C2V     NOp   4
 Largest concise Abelian subgroup C2      NOp   2
                         Standard orientation:                         
 ---------------------------------------------------------------------
 Center     Atomic      Atomic             Coordinates (Angstroms)
 Number     Number       Type             X           Y           Z
 ---------------------------------------------------------------------
      1          6           0        0.000000    3.810750   -0.539113
      2          1           0        0.000000    4.886255   -0.444256
      3          1           0        0.000000    3.389487   -1.530763
      4          6           0        0.000000    3.034155    0.561629
      5          1           0        0.000000    3.520354    1.526891
      6          6           0        0.000000    1.530718    0.574138
      7          1           0        0.000000    1.066450    1.546685
      8          6           0        0.000000    0.747050   -0.529892
      9          1           0        0.000000    1.209491   -1.499125
     10          6           0        0.000000   -0.747050   -0.529892
     11          1           0        0.000000   -1.209491   -1.499125
     12          6           0        0.000000   -1.530718    0.574138
     13          1           0        0.000000   -1.066450    1.546685
     14          6           0        0.000000   -3.034155    0.561629
     15          1           0        0.000000   -3.520354    1.526891
     16          6           0        0.000000   -3.810750   -0.539113
     17          1           0        0.000000   -4.886255   -0.444256
     18          1           0        0.000000   -3.389487   -1.530763
 ---------------------------------------------------------------------
 Rotational constants (GHZ):     10.4499465      0.6823907      0.6405615
 Standard basis: 6-31G(d) (6D, 7F)
 There are    54 symmetry adapted basis functions of A1  symmetry.
 There are    16 symmetry adapted basis functions of A2  symmetry.
 There are    16 symmetry adapted basis functions of B1  symmetry.
 There are    54 symmetry adapted basis functions of B2  symmetry.
 Integral buffers will be    131072 words long.
 Raffenetti 2 integral format.
 Two-electron integral symmetry is turned on.
   140 basis functions,   264 primitive gaussians,   140 cartesian basis functions
    29 alpha electrons       29 beta electrons
       nuclear repulsion energy       302.5891534083 Hartrees.
 NAtoms=   18 NActive=   18 NUniq=    9 SFac= 4.00D+00 NAtFMM=   60 NAOKFM=F Big=F
 One-electron integrals computed using PRISM.
 NBasis=   140 RedAO= T  NBF=    54    16    16    54
 NBsUse=   140 1.00D-06 NBFU=    54    16    16    54
 Initial guess read from the read-write file.
 B after Tr=     0.000000    0.000000    0.000000
         Rot=    1.000000    0.000000    0.000000    0.000000 Ang=   0.00 deg.
 Initial guess orbital symmetries:
       Occupied  (B2) (A1) (A1) (B2) (A1) (B2) (B2) (A1) (A1) (B2)
                 (A1) (B2) (A1) (B2) (A1) (B2) (A1) (B2) (A1) (B2)
                 (A1) (A1) (B2) (B2) (A1) (B1) (A2) (B1) (A2)
       Virtual   (B1) (A2) (B1) (A1) (A2) (B2) (A1) (B2) (A1) (B2)
                 (A1) (A1) (B2) (B2) (A1) (B2) (A1) (B2) (B2) (A1)
                 (A1) (B2) (B1) (A2) (A1) (A1) (B2) (B1) (B2) (A1)
                 (A2) (B1) (B2) (A1) (B1) (A1) (B2) (A2) (A2) (A1)
                 (B2) (A1) (B2) (B2) (A1) (B2) (A1) (A1) (B2) (B2)
                 (A1) (B2) (A1) (B2) (A1) (B2) (B2) (A1) (A1) (B2)
                 (B1) (A2) (B1) (A1) (A2) (B1) (B2) (A2) (B2) (B1)
                 (A2) (B1) (A1) (B2) (A1) (A1) (B2) (A1) (B2) (A2)
                 (A1) (B1) (B2) (A1) (A1) (B2) (A2) (B1) (B2) (A2)
                 (A1) (B1) (B2) (A2) (A1) (A1) (B2) (B2) (A1) (B2)
                 (A1) (B2) (B2) (A1) (B2) (A1) (B2) (A1) (B2) (A1)
                 (B2)
 Harris functional with IExCor=  402 diagonalized for initial guess.
 ExpMin= 1.61D-01 ExpMax= 3.05D+03 ExpMxC= 4.57D+02 IAcc=1 IRadAn=         1 AccDes= 0.00D+00
 HarFok:  IExCor=  402 AccDes= 0.00D+00 IRadAn=         1 IDoV= 1
 ScaDFX=  1.000000  1.000000  1.000000  1.000000
 FoFCou: FMM=F IPFlag=           0 FMFlag=      100000 FMFlg1=           0
         NFxFlg=           0 DoJE=T BraDBF=F KetDBF=T FulRan=T
         Omega=  0.000000  0.000000  1.000000  0.000000  0.000000 ICntrl=     500 IOpCl=  0
         NMat0=    1 NMatS0=    1 NMatT0=    0 NMatD0=    1 NMtDS0=    0 NMtDT0=    0
         I1Cent=           4 NGrid=           0.
 Petite list used in FoFCou.
 Requested convergence on RMS density matrix=1.00D-08 within 128 cycles.
 Requested convergence on MAX density matrix=1.00D-06.
 Requested convergence on             energy=1.00D-06.
 No special actions if energy rises.
 Integral accuracy reduced to 1.0D-05 until final iterations.
 Initial convergence to 1.0D-05 achieved.  Increase integral accuracy.
 SCF Done:  E(RB3LYP) =  -310.783205116     A.U. after   12 cycles
             Convg  =    0.5478D-08             -V/T =  2.0105
 Calling FoFJK, ICntrl=      2127 FMM=F ISym2X=1 I1Cent= 0 IOpClX= 0 NMat=1 NMatS=1 NMatT=0.
 ***** Axes restored to original set *****
 -------------------------------------------------------------------
 Center     Atomic                   Forces (Hartrees/Bohr)
 Number     Number              X              Y              Z
 -------------------------------------------------------------------
      1        6           0.000000000    0.005209174   -0.013612856
      2        1           0.000000000   -0.004235252    0.001860091
      3        1           0.000000000   -0.000027524    0.006550085
      4        6           0.000000000    0.021375792    0.011739339
      5        1           0.000000000   -0.000368309   -0.005745235
      6        6           0.000000000   -0.025506151    0.011166321
      7        1           0.000000000    0.001356515   -0.006765418
      8        6           0.000000000    0.025569718   -0.014252487
      9        1           0.000000000   -0.003309515    0.009060160
     10        6           0.000000000   -0.025569718   -0.014252487
     11        1           0.000000000    0.003309515    0.009060160
     12        6           0.000000000    0.025506151    0.011166321
     13        1           0.000000000   -0.001356515   -0.006765418
     14        6           0.000000000   -0.021375792    0.011739339
     15        1           0.000000000    0.000368309   -0.005745235
     16        6           0.000000000   -0.005209174   -0.013612856
     17        1           0.000000000    0.004235252    0.001860091
     18        1           0.000000000    0.000027524    0.006550085
 -------------------------------------------------------------------
 Cartesian Forces:  Max     0.025569718 RMS     0.009958194

 GradGradGradGradGradGradGradGradGradGradGradGradGradGradGradGradGradGrad
 Berny optimization.
 Using GEDIIS/GDIIS optimizer.
 Internal  Forces:  Max     0.021946536 RMS     0.005628004
 Search for a local minimum.
 Step number   2 out of a maximum of   79
 All quantities printed in internal units (Hartrees-Bohrs-Radians)
 Mixed Optimization -- RFO/linear search
 Update second derivatives using D2CorX and points    1    2
 DE= -2.07D-02 DEPred=-2.21D-02 R= 9.34D-01
 SS=  1.41D+00  RLast= 3.00D-01 DXNew= 5.0454D-01 9.0000D-01
 Trust test= 9.34D-01 RLast= 3.00D-01 DXMaxT set to 5.05D-01
 ITU=  1  0
 Use linear search instead of GDIIS.
     Eigenvalues ---    0.00310   0.00310   0.00499   0.01515   0.01515
     Eigenvalues ---    0.01530   0.01530   0.01626   0.01626   0.02683
     Eigenvalues ---    0.02683   0.02683   0.02683   0.02683   0.02683
     Eigenvalues ---    0.15634   0.16000   0.16000   0.16000   0.16000
     Eigenvalues ---    0.16000   0.16000   0.16000   0.16000   0.16165
     Eigenvalues ---    0.20988   0.22000   0.22000   0.22000   0.22000
     Eigenvalues ---    0.22104   0.29014   0.29924   0.33106   0.37019
     Eigenvalues ---    0.37600   0.37600   0.37600   0.37600   0.37637
     Eigenvalues ---    0.37719   0.38478   0.39200   0.39316   0.53716
     Eigenvalues ---    0.53947   0.53947   0.54083
 RFO step:  Lambda=-6.89752690D-03 EMin= 3.09906363D-03
 Quartic linear search produced a step of  0.64463.
 Iteration  1 RMS(Cart)=  0.04958775 RMS(Int)=  0.00115039
 Iteration  2 RMS(Cart)=  0.00178126 RMS(Int)=  0.00000070
 Iteration  3 RMS(Cart)=  0.00000102 RMS(Int)=  0.00000000
 Iteration  4 RMS(Cart)=  0.00000000 RMS(Int)=  0.00000000
 ClnCor:  largest displacement from symmetrization is 5.50D-10 for atom     5.
 Variable       Old X    -DE/DX   Delta X   Delta X   Delta X     New X
                                 (Linear)    (Quad)   (Total)
    R1        2.04030   0.00406   0.01647   0.00224   0.01870   2.05900
    R2        2.03603   0.00602   0.01258   0.01427   0.02684   2.06287
    R3        2.54569  -0.00480  -0.00974  -0.00526  -0.01500   2.53069
    R4        2.04241   0.00530   0.01669   0.00741   0.02410   2.06651
    R5        2.84118  -0.02195  -0.03775  -0.08749  -0.12523   2.71595
    R6        2.03652   0.00669   0.01289   0.01686   0.02975   2.06627
    R7        2.55848  -0.00296  -0.00149  -0.00750  -0.00899   2.54949
    R8        2.02938   0.00960   0.02414   0.01720   0.04133   2.07071
    R9        2.82344  -0.02006  -0.03175  -0.07754  -0.10930   2.71414
   R10        2.02938   0.00960   0.02414   0.01720   0.04133   2.07071
   R11        2.55848  -0.00296  -0.00149  -0.00750  -0.00899   2.54949
   R12        2.03652   0.00669   0.01289   0.01686   0.02975   2.06627
   R13        2.84118  -0.02195  -0.03775  -0.08749  -0.12523   2.71595
   R14        2.04241   0.00530   0.01669   0.00741   0.02410   2.06651
   R15        2.54569  -0.00480  -0.00974  -0.00526  -0.01500   2.53069
   R16        2.04030   0.00406   0.01647   0.00224   0.01870   2.05900
   R17        2.03603   0.00602   0.01258   0.01427   0.02684   2.06287
    A1        2.06048  -0.00327  -0.01827  -0.01719  -0.03547   2.02501
    A2        2.09725   0.00127  -0.00138   0.01362   0.01225   2.10949
    A3        2.12546   0.00200   0.01965   0.00357   0.02322   2.14868
    A4        2.06057  -0.00060  -0.02218   0.02122  -0.00096   2.05961
    A5        2.19354   0.00580   0.06069  -0.01050   0.05020   2.24373
    A6        2.02908  -0.00520  -0.03852  -0.01072  -0.04923   1.97984
    A7        2.02450  -0.00389  -0.04147   0.00248  -0.03899   1.98551
    A8        2.17976   0.00434   0.05182  -0.01336   0.03845   2.21822
    A9        2.07892  -0.00045  -0.01035   0.01089   0.00054   2.07946
   A10        2.07913  -0.00187  -0.01273   0.00045  -0.01228   2.06685
   A11        2.18809   0.00561   0.05154  -0.00398   0.04756   2.23565
   A12        2.01597  -0.00373  -0.03881   0.00353  -0.03528   1.98069
   A13        2.01597  -0.00373  -0.03881   0.00353  -0.03528   1.98069
   A14        2.18809   0.00561   0.05154  -0.00398   0.04756   2.23565
   A15        2.07913  -0.00187  -0.01273   0.00045  -0.01228   2.06685
   A16        2.07892  -0.00045  -0.01035   0.01089   0.00054   2.07946
   A17        2.17976   0.00434   0.05182  -0.01336   0.03845   2.21822
   A18        2.02450  -0.00389  -0.04147   0.00248  -0.03899   1.98551
   A19        2.02908  -0.00520  -0.03852  -0.01072  -0.04923   1.97984
   A20        2.19354   0.00580   0.06069  -0.01050   0.05020   2.24373
   A21        2.06057  -0.00060  -0.02218   0.02122  -0.00096   2.05961
   A22        2.09725   0.00127  -0.00138   0.01362   0.01225   2.10949
   A23        2.12546   0.00200   0.01965   0.00357   0.02322   2.14868
   A24        2.06048  -0.00327  -0.01827  -0.01719  -0.03547   2.02501
    D1        0.00000   0.00000   0.00000   0.00000   0.00000   0.00000
    D2        3.14159   0.00000   0.00000   0.00000   0.00000   3.14159
    D3        3.14159   0.00000   0.00000   0.00000   0.00000   3.14159
    D4        0.00000   0.00000   0.00000   0.00000   0.00000   0.00000
    D5        3.14159   0.00000   0.00000   0.00000   0.00000   3.14159
    D6        0.00000   0.00000   0.00000   0.00000   0.00000   0.00000
    D7        0.00000   0.00000   0.00000   0.00000   0.00000   0.00000
    D8        3.14159   0.00000   0.00000   0.00000   0.00000   3.14159
    D9        0.00000   0.00000   0.00000   0.00000   0.00000   0.00000
   D10        3.14159   0.00000   0.00000   0.00000   0.00000   3.14159
   D11        3.14159   0.00000   0.00000   0.00000   0.00000   3.14159
   D12        0.00000   0.00000   0.00000   0.00000   0.00000   0.00000
   D13        3.14159   0.00000   0.00000   0.00000   0.00000   3.14159
   D14        0.00000   0.00000   0.00000   0.00000   0.00000   0.00000
   D15        0.00000   0.00000   0.00000   0.00000   0.00000   0.00000
   D16        3.14159   0.00000   0.00000   0.00000   0.00000   3.14159
   D17        0.00000   0.00000   0.00000   0.00000   0.00000   0.00000
   D18        3.14159   0.00000   0.00000   0.00000   0.00000   3.14159
   D19        3.14159   0.00000   0.00000   0.00000   0.00000   3.14159
   D20        0.00000   0.00000   0.00000   0.00000   0.00000   0.00000
   D21        3.14159   0.00000   0.00000   0.00000   0.00000   3.14159
   D22        0.00000   0.00000   0.00000   0.00000   0.00000   0.00000
   D23        0.00000   0.00000   0.00000   0.00000   0.00000   0.00000
   D24        3.14159   0.00000   0.00000   0.00000   0.00000   3.14159
   D25        3.14159   0.00000   0.00000   0.00000   0.00000   3.14159
   D26        0.00000   0.00000   0.00000   0.00000   0.00000   0.00000
   D27        0.00000   0.00000   0.00000   0.00000   0.00000   0.00000
   D28        3.14159   0.00000   0.00000   0.00000   0.00000   3.14159
         Item               Value     Threshold  Converged?
 Maximum Force            0.021947     0.000450     NO 
 RMS     Force            0.005628     0.000300     NO 
 Maximum Displacement     0.152161     0.001800     NO 
 RMS     Displacement     0.050212     0.001200     NO 
 Predicted change in Energy=-4.723935D-03
 GradGradGradGradGradGradGradGradGradGradGradGradGradGradGradGradGradGrad

                          Input orientation:                          
 ---------------------------------------------------------------------
 Center     Atomic      Atomic             Coordinates (Angstroms)
 Number     Number       Type             X           Y           Z
 ---------------------------------------------------------------------
      1          6           0        0.000000   -3.803780    0.539375
      2          1           0        0.000000   -4.885933    0.412393
      3          1           0        0.000000   -3.442412    1.569452
      4          6           0        0.000000   -2.987469   -0.522248
      5          1           0        0.000000   -3.439834   -1.517847
      6          6           0        0.000000   -1.550469   -0.547301
      7          1           0        0.000000   -1.127406   -1.555562
      8          6           0        0.000000   -0.718132    0.514478
      9          1           0        0.000000   -1.154810    1.519480
     10          6           0        0.000000    0.718132    0.514478
     11          1           0        0.000000    1.154810    1.519480
     12          6           0        0.000000    1.550469   -0.547301
     13          1           0        0.000000    1.127406   -1.555562
     14          6           0        0.000000    2.987469   -0.522248
     15          1           0        0.000000    3.439834   -1.517847
     16          6           0        0.000000    3.803780    0.539375
     17          1           0        0.000000    4.885933    0.412393
     18          1           0        0.000000    3.442412    1.569452
 ---------------------------------------------------------------------
                    Distance matrix (angstroms):
                    1          2          3          4          5
     1  C    0.000000
     2  H    1.089578   0.000000
     3  H    1.091625   1.850011   0.000000
     4  C    1.339181   2.116062   2.140603   0.000000
     5  H    2.089167   2.411851   3.087300   1.093550   0.000000
     6  C    2.501655   3.470783   2.839030   1.437219   2.124067
     7  H    3.398785   4.242567   3.889083   2.127809   2.312736
     8  C    3.085749   4.169052   2.921417   2.494933   3.396764
     9  H    2.824473   3.891905   2.288148   2.743591   3.800880
    10  C    4.521981   5.604995   4.292213   3.847893   4.628069
    11  H    5.054525   6.141354   4.597494   4.618131   5.507823
    12  C    5.463410   6.507556   5.423053   4.538007   5.083806
    13  H    5.357739   6.327172   5.536150   4.242634   4.567397
    14  C    6.873727   7.928683   6.761552   5.974939   6.503956
    15  H    7.530081   8.546592   7.542992   6.503956   6.879669
    16  C    7.607561   8.690642   7.319041   6.873727   7.530081
    17  H    8.690642   9.771867   8.408336   7.928683   8.546592
    18  H    7.319041   8.408336   6.884824   6.761552   7.542992
                    6          7          8          9         10
     6  C    0.000000
     7  H    1.093422   0.000000
     8  C    1.349133   2.110112   0.000000
     9  H    2.104312   3.075164   1.095773   0.000000
    10  C    2.504780   2.773279   1.436263   2.125545   0.000000
    11  H    3.404426   3.829412   2.125545   2.309621   1.095773
    12  C    3.100938   2.861399   2.504780   3.404426   1.349133
    13  H    2.861399   2.254813   2.773279   3.829412   2.110112
    14  C    4.538007   4.242634   3.847893   4.618131   2.494933
    15  H    5.083806   4.567397   4.628069   5.507823   3.396764
    16  C    5.463410   5.357739   4.521981   5.054525   3.085749
    17  H    6.507556   6.327172   5.604995   6.141354   4.169052
    18  H    5.423053   5.536150   4.292213   4.597494   2.921417
                   11         12         13         14         15
    11  H    0.000000
    12  C    2.104312   0.000000
    13  H    3.075164   1.093422   0.000000
    14  C    2.743591   1.437219   2.127809   0.000000
    15  H    3.800880   2.124067   2.312736   1.093550   0.000000
    16  C    2.824473   2.501655   3.398785   1.339181   2.089167
    17  H    3.891905   3.470783   4.242567   2.116062   2.411851
    18  H    2.288148   2.839030   3.889083   2.140603   3.087300
                   16         17         18
    16  C    0.000000
    17  H    1.089578   0.000000
    18  H    1.091625   1.850011   0.000000
 Stoichiometry    C8H10
 Framework group  C2V[SGV(C8H10)]
 Deg. of freedom    17
 Full point group                 C2V     NOp   4
 Largest Abelian subgroup         C2V     NOp   4
 Largest concise Abelian subgroup C2      NOp   2
                         Standard orientation:                         
 ---------------------------------------------------------------------
 Center     Atomic      Atomic             Coordinates (Angstroms)
 Number     Number       Type             X           Y           Z
 ---------------------------------------------------------------------
      1          6           0        0.000000    3.803780   -0.527867
      2          1           0        0.000000    4.885933   -0.400885
      3          1           0        0.000000    3.442412   -1.557944
      4          6           0        0.000000    2.987469    0.533756
      5          1           0        0.000000    3.439834    1.529355
      6          6           0        0.000000    1.550469    0.558809
      7          1           0        0.000000    1.127406    1.567071
      8          6           0        0.000000    0.718132   -0.502969
      9          1           0        0.000000    1.154810   -1.507972
     10          6           0        0.000000   -0.718132   -0.502969
     11          1           0        0.000000   -1.154810   -1.507972
     12          6           0        0.000000   -1.550469    0.558809
     13          1           0        0.000000   -1.127406    1.567071
     14          6           0        0.000000   -2.987469    0.533756
     15          1           0        0.000000   -3.439834    1.529355
     16          6           0        0.000000   -3.803780   -0.527867
     17          1           0        0.000000   -4.885933   -0.400885
     18          1           0        0.000000   -3.442412   -1.557944
 ---------------------------------------------------------------------
 Rotational constants (GHZ):     10.8567170      0.6898190      0.6486075
 Standard basis: 6-31G(d) (6D, 7F)
 There are    54 symmetry adapted basis functions of A1  symmetry.
 There are    16 symmetry adapted basis functions of A2  symmetry.
 There are    16 symmetry adapted basis functions of B1  symmetry.
 There are    54 symmetry adapted basis functions of B2  symmetry.
 Integral buffers will be    131072 words long.
 Raffenetti 2 integral format.
 Two-electron integral symmetry is turned on.
   140 basis functions,   264 primitive gaussians,   140 cartesian basis functions
    29 alpha electrons       29 beta electrons
       nuclear repulsion energy       305.1545876285 Hartrees.
 NAtoms=   18 NActive=   18 NUniq=    9 SFac= 4.00D+00 NAtFMM=   60 NAOKFM=F Big=F
 One-electron integrals computed using PRISM.
 NBasis=   140 RedAO= T  NBF=    54    16    16    54
 NBsUse=   140 1.00D-06 NBFU=    54    16    16    54
 Initial guess read from the read-write file.
 B after Tr=     0.000000    0.000000    0.000000
         Rot=    1.000000    0.000000    0.000000    0.000000 Ang=   0.00 deg.
 Initial guess orbital symmetries:
       Occupied  (B2) (A1) (A1) (B2) (A1) (B2) (B2) (A1) (A1) (B2)
                 (A1) (B2) (A1) (B2) (A1) (B2) (A1) (B2) (A1) (B2)
                 (A1) (A1) (B2) (B2) (A1) (B1) (A2) (B1) (A2)
       Virtual   (B1) (A2) (B1) (A1) (A1) (B2) (B2) (A2) (A1) (B2)
                 (A1) (A1) (B2) (B2) (A1) (B2) (A1) (B2) (B2) (A1)
                 (A1) (B2) (B1) (A1) (A2) (B2) (A1) (B1) (B2) (A1)
                 (A2) (B2) (B1) (A1) (B1) (A1) (B2) (A2) (A2) (B2)
                 (A1) (A1) (B2) (B2) (A1) (B2) (A1) (A1) (B2) (B2)
                 (A1) (B2) (A1) (B2) (A1) (B2) (B2) (A1) (A1) (B2)
                 (B1) (A2) (B1) (A1) (A2) (B1) (B2) (A2) (B1) (B2)
                 (A2) (B1) (A1) (A1) (B2) (A1) (B2) (A1) (B2) (A2)
                 (A1) (B1) (B2) (A1) (A1) (B2) (A2) (B1) (B2) (A2)
                 (A1) (B2) (B1) (A1) (A1) (A2) (B2) (B2) (A1) (B2)
                 (A1) (B2) (B2) (A1) (B2) (A1) (B2) (A1) (B2) (A1)
                 (B2)
 Harris functional with IExCor=  402 diagonalized for initial guess.
 ExpMin= 1.61D-01 ExpMax= 3.05D+03 ExpMxC= 4.57D+02 IAcc=1 IRadAn=         1 AccDes= 0.00D+00
 HarFok:  IExCor=  402 AccDes= 0.00D+00 IRadAn=         1 IDoV= 1
 ScaDFX=  1.000000  1.000000  1.000000  1.000000
 FoFCou: FMM=F IPFlag=           0 FMFlag=      100000 FMFlg1=           0
         NFxFlg=           0 DoJE=T BraDBF=F KetDBF=T FulRan=T
         Omega=  0.000000  0.000000  1.000000  0.000000  0.000000 ICntrl=     500 IOpCl=  0
         NMat0=    1 NMatS0=    1 NMatT0=    0 NMatD0=    1 NMtDS0=    0 NMtDT0=    0
         I1Cent=           4 NGrid=           0.
 Petite list used in FoFCou.
 Requested convergence on RMS density matrix=1.00D-08 within 128 cycles.
 Requested convergence on MAX density matrix=1.00D-06.
 Requested convergence on             energy=1.00D-06.
 No special actions if energy rises.
 Integral accuracy reduced to 1.0D-05 until final iterations.
 Initial convergence to 1.0D-05 achieved.  Increase integral accuracy.
 SCF Done:  E(RB3LYP) =  -310.786118942     A.U. after   12 cycles
             Convg  =    0.9829D-08             -V/T =  2.0098
 Calling FoFJK, ICntrl=      2127 FMM=F ISym2X=1 I1Cent= 0 IOpClX= 0 NMat=1 NMatS=1 NMatT=0.
 ***** Axes restored to original set *****
 -------------------------------------------------------------------
 Center     Atomic                   Forces (Hartrees/Bohr)
 Number     Number              X              Y              Z
 -------------------------------------------------------------------
      1        6           0.000000000   -0.006912530    0.007022562
      2        1           0.000000000    0.002593212    0.000485295
      3        1           0.000000000   -0.000538668   -0.003175446
      4        6           0.000000000   -0.010810395   -0.007413284
      5        1           0.000000000   -0.001558588    0.003047988
      6        6           0.000000000    0.009777168   -0.008807948
      7        1           0.000000000    0.001611379    0.003444574
      8        6           0.000000000   -0.005290022    0.009973499
      9        1           0.000000000   -0.000700825   -0.004577241
     10        6           0.000000000    0.005290022    0.009973499
     11        1           0.000000000    0.000700825   -0.004577241
     12        6           0.000000000   -0.009777168   -0.008807948
     13        1           0.000000000   -0.001611379    0.003444574
     14        6           0.000000000    0.010810395   -0.007413284
     15        1           0.000000000    0.001558588    0.003047988
     16        6           0.000000000    0.006912530    0.007022562
     17        1           0.000000000   -0.002593212    0.000485295
     18        1           0.000000000    0.000538668   -0.003175446
 -------------------------------------------------------------------
 Cartesian Forces:  Max     0.010810395 RMS     0.004847703

 GradGradGradGradGradGradGradGradGradGradGradGradGradGradGradGradGradGrad
 Berny optimization.
 Using GEDIIS/GDIIS optimizer.
 Internal  Forces:  Max     0.017223778 RMS     0.004039589
 Search for a local minimum.
 Step number   3 out of a maximum of   79
 All quantities printed in internal units (Hartrees-Bohrs-Radians)
 Mixed Optimization -- RFO/linear search
 Update second derivatives using D2CorX and points    1    2    3
 DE= -2.91D-03 DEPred=-4.72D-03 R= 6.17D-01
 SS=  1.41D+00  RLast= 2.82D-01 DXNew= 8.4853D-01 8.4593D-01
 Trust test= 6.17D-01 RLast= 2.82D-01 DXMaxT set to 8.46D-01
 ITU=  1  1  0
 Use linear search instead of GDIIS.
     Eigenvalues ---    0.00310   0.00310   0.00499   0.01542   0.01542
     Eigenvalues ---    0.01552   0.01552   0.01637   0.01637   0.02683
     Eigenvalues ---    0.02683   0.02683   0.02683   0.02683   0.02683
     Eigenvalues ---    0.15300   0.16000   0.16000   0.16000   0.16000
     Eigenvalues ---    0.16000   0.16000   0.16000   0.16072   0.16478
     Eigenvalues ---    0.21403   0.22000   0.22000   0.22000   0.22000
     Eigenvalues ---    0.22031   0.29014   0.30043   0.35927   0.37029
     Eigenvalues ---    0.37600   0.37600   0.37600   0.37612   0.37716
     Eigenvalues ---    0.37719   0.38394   0.38955   0.39316   0.53942
     Eigenvalues ---    0.53947   0.53947   0.56123
 RFO step:  Lambda=-3.58438312D-04 EMin= 3.09906363D-03
 Quartic linear search produced a step of -0.35010.
 Iteration  1 RMS(Cart)=  0.02278073 RMS(Int)=  0.00011206
 Iteration  2 RMS(Cart)=  0.00014492 RMS(Int)=  0.00000001
 Iteration  3 RMS(Cart)=  0.00000001 RMS(Int)=  0.00000000
 ClnCor:  largest displacement from symmetrization is 1.04D-09 for atom    16.
 Variable       Old X    -DE/DX   Delta X   Delta X   Delta X     New X
                                 (Linear)    (Quad)   (Total)
    R1        2.05900  -0.00263  -0.00655  -0.00006  -0.00660   2.05240
    R2        2.06287  -0.00317  -0.00940   0.00157  -0.00783   2.05504
    R3        2.53069   0.00640   0.00525   0.00403   0.00928   2.53997
    R4        2.06651  -0.00213  -0.00844   0.00238  -0.00606   2.06045
    R5        2.71595   0.01722   0.04384   0.00415   0.04799   2.76394
    R6        2.06627  -0.00255  -0.01042   0.00349  -0.00692   2.05935
    R7        2.54949   0.00785   0.00315   0.00714   0.01028   2.55978
    R8        2.07071  -0.00392  -0.01447   0.00414  -0.01033   2.06038
    R9        2.71414   0.01183   0.03826  -0.00484   0.03343   2.74757
   R10        2.07071  -0.00392  -0.01447   0.00414  -0.01033   2.06038
   R11        2.54949   0.00785   0.00315   0.00714   0.01028   2.55978
   R12        2.06627  -0.00255  -0.01042   0.00349  -0.00692   2.05935
   R13        2.71595   0.01722   0.04384   0.00415   0.04799   2.76394
   R14        2.06651  -0.00213  -0.00844   0.00238  -0.00606   2.06045
   R15        2.53069   0.00640   0.00525   0.00403   0.00928   2.53997
   R16        2.05900  -0.00263  -0.00655  -0.00006  -0.00660   2.05240
   R17        2.06287  -0.00317  -0.00940   0.00157  -0.00783   2.05504
    A1        2.02501   0.00025   0.01242  -0.00885   0.00357   2.02857
    A2        2.10949   0.00062  -0.00429   0.00665   0.00236   2.11186
    A3        2.14868  -0.00087  -0.00813   0.00220  -0.00593   2.14276
    A4        2.05961  -0.00237   0.00034  -0.00869  -0.00836   2.05125
    A5        2.24373  -0.00080  -0.01757   0.00872  -0.00885   2.23488
    A6        1.97984   0.00317   0.01724  -0.00003   0.01721   1.99705
    A7        1.98551   0.00296   0.01365   0.00307   0.01672   2.00224
    A8        2.21822  -0.00010  -0.01346   0.00783  -0.00563   2.21259
    A9        2.07946  -0.00286  -0.00019  -0.01091  -0.01110   2.06836
   A10        2.06685  -0.00186   0.00430  -0.01136  -0.00706   2.05979
   A11        2.23565  -0.00139  -0.01665   0.00678  -0.00988   2.22577
   A12        1.98069   0.00325   0.01235   0.00458   0.01693   1.99762
   A13        1.98069   0.00325   0.01235   0.00458   0.01693   1.99762
   A14        2.23565  -0.00139  -0.01665   0.00678  -0.00988   2.22577
   A15        2.06685  -0.00186   0.00430  -0.01136  -0.00706   2.05979
   A16        2.07946  -0.00286  -0.00019  -0.01091  -0.01110   2.06836
   A17        2.21822  -0.00010  -0.01346   0.00783  -0.00563   2.21259
   A18        1.98551   0.00296   0.01365   0.00307   0.01672   2.00224
   A19        1.97984   0.00317   0.01724  -0.00003   0.01721   1.99705
   A20        2.24373  -0.00080  -0.01757   0.00872  -0.00885   2.23488
   A21        2.05961  -0.00237   0.00034  -0.00869  -0.00836   2.05125
   A22        2.10949   0.00062  -0.00429   0.00665   0.00236   2.11186
   A23        2.14868  -0.00087  -0.00813   0.00220  -0.00593   2.14276
   A24        2.02501   0.00025   0.01242  -0.00885   0.00357   2.02857
    D1        0.00000   0.00000   0.00000   0.00000   0.00000   0.00000
    D2        3.14159   0.00000   0.00000   0.00000   0.00000   3.14159
    D3        3.14159   0.00000   0.00000   0.00000   0.00000   3.14159
    D4        0.00000   0.00000   0.00000   0.00000   0.00000   0.00000
    D5        3.14159   0.00000   0.00000   0.00000   0.00000   3.14159
    D6        0.00000   0.00000   0.00000   0.00000   0.00000   0.00000
    D7        0.00000   0.00000   0.00000   0.00000   0.00000   0.00000
    D8        3.14159   0.00000   0.00000   0.00000   0.00000   3.14159
    D9        0.00000   0.00000   0.00000   0.00000   0.00000   0.00000
   D10        3.14159   0.00000   0.00000   0.00000   0.00000   3.14159
   D11        3.14159   0.00000   0.00000   0.00000   0.00000   3.14159
   D12        0.00000   0.00000   0.00000   0.00000   0.00000   0.00000
   D13        3.14159   0.00000   0.00000   0.00000   0.00000   3.14159
   D14        0.00000   0.00000   0.00000   0.00000   0.00000   0.00000
   D15        0.00000   0.00000   0.00000   0.00000   0.00000   0.00000
   D16        3.14159   0.00000   0.00000   0.00000   0.00000   3.14159
   D17        0.00000   0.00000   0.00000   0.00000   0.00000   0.00000
   D18        3.14159   0.00000   0.00000   0.00000   0.00000   3.14159
   D19        3.14159   0.00000   0.00000   0.00000   0.00000   3.14159
   D20        0.00000   0.00000   0.00000   0.00000   0.00000   0.00000
   D21        3.14159   0.00000   0.00000   0.00000   0.00000   3.14159
   D22        0.00000   0.00000   0.00000   0.00000   0.00000   0.00000
   D23        0.00000   0.00000   0.00000   0.00000   0.00000   0.00000
   D24        3.14159   0.00000   0.00000   0.00000   0.00000   3.14159
   D25        3.14159   0.00000   0.00000   0.00000   0.00000   3.14159
   D26        0.00000   0.00000   0.00000   0.00000   0.00000   0.00000
   D27        0.00000   0.00000   0.00000   0.00000   0.00000   0.00000
   D28        3.14159   0.00000   0.00000   0.00000   0.00000   3.14159
         Item               Value     Threshold  Converged?
 Maximum Force            0.017224     0.000450     NO 
 RMS     Force            0.004040     0.000300     NO 
 Maximum Displacement     0.072983     0.001800     NO 
 RMS     Displacement     0.022698     0.001200     NO 
 Predicted change in Energy=-1.624148D-03
 GradGradGradGradGradGradGradGradGradGradGradGradGradGradGradGradGradGrad

                          Input orientation:                          
 ---------------------------------------------------------------------
 Center     Atomic      Atomic             Coordinates (Angstroms)
 Number     Number       Type             X           Y           Z
 ---------------------------------------------------------------------
      1          6           0        0.000000   -3.828978    0.538148
      2          1           0        0.000000   -4.908515    0.419094
      3          1           0        0.000000   -3.458191    1.560465
      4          6           0        0.000000   -3.014589   -0.531132
      5          1           0        0.000000   -3.478455   -1.517881
      6          6           0        0.000000   -1.552102   -0.550417
      7          1           0        0.000000   -1.109478   -1.546237
      8          6           0        0.000000   -0.726976    0.523846
      9          1           0        0.000000   -1.178344    1.516334
     10          6           0        0.000000    0.726976    0.523846
     11          1           0        0.000000    1.178344    1.516334
     12          6           0        0.000000    1.552102   -0.550417
     13          1           0        0.000000    1.109478   -1.546237
     14          6           0        0.000000    3.014589   -0.531132
     15          1           0        0.000000    3.478455   -1.517881
     16          6           0        0.000000    3.828978    0.538148
     17          1           0        0.000000    4.908515    0.419094
     18          1           0        0.000000    3.458191    1.560465
 ---------------------------------------------------------------------
                    Distance matrix (angstroms):
                    1          2          3          4          5
     1  C    0.000000
     2  H    1.086083   0.000000
     3  H    1.087480   1.845581   0.000000
     4  C    1.344094   2.118935   2.138121   0.000000
     5  H    2.085695   2.407684   3.078413   1.090342   0.000000
     6  C    2.523715   3.493631   2.844116   1.462614   2.155650
     7  H    3.426418   4.277290   3.894618   2.158676   2.369147
     8  C    3.102035   4.182851   2.921321   2.519157   3.426265
     9  H    2.825368   3.888201   2.280274   2.750256   3.807489
    10  C    4.555976   5.636464   4.311635   3.887452   4.674858
    11  H    5.101972   6.184965   4.636745   4.666133   5.558079
[...]
 ! R10   R(10,11)                1.0892         -DE/DX =    0.0                 !
 ! R11   R(10,12)                1.3552         -DE/DX =    0.0001              !
 ! R12   R(12,13)                1.0889         -DE/DX =    0.0                 !
 ! R13   R(12,14)                1.4605         -DE/DX =    0.0                 !
 ! R14   R(14,15)                1.0897         -DE/DX =    0.0                 !
 ! R15   R(14,16)                1.344          -DE/DX =    0.0                 !
 ! R16   R(16,17)                1.0856         -DE/DX =    0.0                 !
 ! R17   R(16,18)                1.0869         -DE/DX =    0.0                 !
 ! A1    A(2,1,3)              116.2816         -DE/DX =    0.0                 !
 ! A2    A(2,1,4)              120.9575         -DE/DX =    0.0                 !
 ! A3    A(3,1,4)              122.7609         -DE/DX =    0.0                 !
 ! A4    A(1,4,5)              117.4729         -DE/DX =    0.0                 !
 ! A5    A(1,4,6)              127.9447         -DE/DX =    0.0                 !
 ! A6    A(5,4,6)              114.5824         -DE/DX =    0.0                 !
 ! A7    A(4,6,7)              114.8548         -DE/DX =    0.0                 !
 ! A8    A(4,6,8)              126.6617         -DE/DX =    0.0                 !
 ! A9    A(7,6,8)              118.4835         -DE/DX =    0.0                 !
 ! A10   A(6,8,9)              117.9349         -DE/DX =    0.0                 !
 ! A11   A(6,8,10)             127.4145         -DE/DX =    0.0                 !
 ! A12   A(9,8,10)             114.6506         -DE/DX =    0.0                 !
 ! A13   A(8,10,11)            114.6506         -DE/DX =    0.0                 !
 ! A14   A(8,10,12)            127.4145         -DE/DX =    0.0                 !
 ! A15   A(11,10,12)           117.9349         -DE/DX =    0.0                 !
 ! A16   A(10,12,13)           118.4835         -DE/DX =    0.0                 !
 ! A17   A(10,12,14)           126.6617         -DE/DX =    0.0                 !
 ! A18   A(13,12,14)           114.8548         -DE/DX =    0.0                 !
 ! A19   A(12,14,15)           114.5824         -DE/DX =    0.0                 !
 ! A20   A(12,14,16)           127.9447         -DE/DX =    0.0                 !
 ! A21   A(15,14,16)           117.4729         -DE/DX =    0.0                 !
 ! A22   A(14,16,17)           120.9575         -DE/DX =    0.0                 !
 ! A23   A(14,16,18)           122.7609         -DE/DX =    0.0                 !
 ! A24   A(17,16,18)           116.2816         -DE/DX =    0.0                 !
 ! D1    D(2,1,4,5)              0.0            -DE/DX =    0.0                 !
 ! D2    D(2,1,4,6)            180.0            -DE/DX =    0.0                 !
 ! D3    D(3,1,4,5)            180.0            -DE/DX =    0.0                 !
 ! D4    D(3,1,4,6)              0.0            -DE/DX =    0.0                 !
 ! D5    D(1,4,6,7)            180.0            -DE/DX =    0.0                 !
 ! D6    D(1,4,6,8)              0.0            -DE/DX =    0.0                 !
 ! D7    D(5,4,6,7)              0.0            -DE/DX =    0.0                 !
 ! D8    D(5,4,6,8)            180.0            -DE/DX =    0.0                 !
 ! D9    D(4,6,8,9)              0.0            -DE/DX =    0.0                 !
 ! D10   D(4,6,8,10)           180.0            -DE/DX =    0.0                 !
 ! D11   D(7,6,8,9)            180.0            -DE/DX =    0.0                 !
 ! D12   D(7,6,8,10)             0.0            -DE/DX =    0.0                 !
 ! D13   D(6,8,10,11)          180.0            -DE/DX =    0.0                 !
 ! D14   D(6,8,10,12)            0.0            -DE/DX =    0.0                 !
 ! D15   D(9,8,10,11)            0.0            -DE/DX =    0.0                 !
 ! D16   D(9,8,10,12)          180.0            -DE/DX =    0.0                 !
 ! D17   D(8,10,12,13)           0.0            -DE/DX =    0.0                 !
 ! D18   D(8,10,12,14)         180.0            -DE/DX =    0.0                 !
 ! D19   D(11,10,12,13)        180.0            -DE/DX =    0.0                 !
 ! D20   D(11,10,12,14)          0.0            -DE/DX =    0.0                 !
 ! D21   D(10,12,14,15)        180.0            -DE/DX =    0.0                 !
 ! D22   D(10,12,14,16)          0.0            -DE/DX =    0.0                 !
 ! D23   D(13,12,14,15)          0.0            -DE/DX =    0.0                 !
 ! D24   D(13,12,14,16)        180.0            -DE/DX =    0.0                 !
 ! D25   D(12,14,16,17)        180.0            -DE/DX =    0.0                 !
 ! D26   D(12,14,16,18)          0.0            -DE/DX =    0.0                 !
 ! D27   D(15,14,16,17)          0.0            -DE/DX =    0.0                 !
 ! D28   D(15,14,16,18)        180.0            -DE/DX =    0.0                 !
 --------------------------------------------------------------------------------
 GradGradGradGradGradGradGradGradGradGradGradGradGradGradGradGradGradGrad

 1\1\GINC-STUDENT-LENOVO-S510\Freq\RB3LYP\6-31G(d)\C8H10\STUDENT\02-Mar
 -2021\0\\#N Geom=AllCheck Guess=TCheck SCRF=Check GenChk RB3LYP/6-31G(
 d) Freq\\Title Card Required\\0,1\C,0.,-3.8225670655,0.538440775\H,0.,
 -4.9017161448,0.4205511626\H,0.,-3.4499950182,1.5594607991\C,0.,-3.010
 1254925,-0.5322233545\H,0.,-3.4764133686,-1.5170981\C,0.,-1.5497223134
 ,-0.5514111189\H,0.,-1.1050738755,-1.5453414345\C,0.,-0.7263381576,0.5
 249671276\H,0.,-1.1806104326,1.5148735936\C,0.,0.7263381576,0.52496712
 76\H,0.,1.1806104326,1.5148735936\C,0.,1.5497223134,-0.5514111189\H,0.
 ,1.1050738755,-1.5453414345\C,0.,3.0101254925,-0.5322233545\H,0.,3.476
 4133686,-1.5170981\C,0.,3.8225670655,0.538440775\H,0.,4.9017161448,0.4
 205511626\H,0.,3.4499950182,1.5594607991\\Version=EM64L-G09RevC.01\Sta
 te=1-A1\HF=-310.787613\RMSD=8.587e-09\RMSF=1.921e-05\ZeroPoint=0.15180
 78\Thermal=0.1588357\Dipole=0.,0.,-0.0363758\DipoleDeriv=-0.2939701,0.
 ,0.,0.,-0.2627078,0.0617879,0.,0.0615956,0.0264774,0.1337581,0.,0.,0.,
 -0.1150587,-0.0016571,0.,-0.0077417,0.0493913,0.1353169,0.,0.,0.,0.022
 4613,-0.07746,0.,-0.0367222,-0.07447,-0.0895953,0.,0.,0.,0.3847554,0.0
 54955,0.,0.4129182,0.1102441,0.109516,0.,0.,0.,-0.0390075,-0.0502878,0
 .,-0.1102393,-0.1084034,-0.1073255,0.,0.,0.,-0.081654,-0.0662601,0.,-0
 .3677897,0.0865426,0.107521,0.,0.,0.,0.0027699,0.0710413,0.,0.058184,-
 0.0871964,-0.1006081,0.,0.,0.,0.1011914,-0.0526008,0.,-0.4127314,0.081
 0793,0.105387,0.,0.,0.,-0.0127498,0.0650387,0.,0.077386,-0.0836649,-0.
 1006081,0.,0.,0.,0.1011914,0.0526008,0.,0.4127315,0.0810793,0.105387,0
 .,0.,0.,-0.0127498,-0.0650387,0.,-0.077386,-0.0836649,-0.1073255,0.,0.
 ,0.,-0.0816541,0.0662601,0.,0.3677898,0.0865426,0.107521,0.,0.,0.,0.00
 27699,-0.0710413,0.,-0.058184,-0.0871964,-0.0895953,0.,0.,0.,0.3847554
 ,-0.054955,0.,-0.4129183,0.1102441,0.109516,0.,0.,0.,-0.0390075,0.0502
 878,0.,0.1102393,-0.1084034,-0.2939701,0.,0.,0.,-0.2627078,-0.0617879,
 0.,-0.0615957,0.0264775,0.1337581,0.,0.,0.,-0.1150587,0.0016571,0.,0.0
 077418,0.0493912,0.1353169,0.,0.,0.,0.0224613,0.07746,0.,0.0367222,-0.
 07447\Polar=28.9221962,0.,221.259813,0.,0.0000001,82.4915852\PG=C02V [
 SGV(C8H10)]\NImag=3\\0.09987472,0.,0.71725917,0.,-0.08670585,0.7633469
 5,-0.02918842,0.,0.,0.02068002,0.,-0.34114554,-0.03435509,0.,0.3610138
 0,0.,-0.03881297,-0.06226716,0.,0.03495309,0.05894737,-0.03478905,0.,0
 .,0.00268584,0.,0.,0.02091595,0.,-0.09575155,-0.09417865,0.,-0.0062729
 7,-0.02712972,0.,0.09184375,0.,-0.09176681,-0.30348071,0.,0.00057948,-
 0.00011016,0.,0.10023615,0.32475563,-0.04965527,0.,0.,0.00398126,0.,0.
 ,0.00497310,0.,0.,0.12941807,0.,-0.24990321,0.18008599,0.,-0.01539223,
 0.02848988,0.,0.01384353,-0.01118009,0.,0.64881252,0.,0.19917065,-0.38
 177638,0.,-0.00453353,0.00554640,0.,0.01823018,-0.02113361,0.,-0.09144
 307,0.77656253,0.00515043,0.,0.,-0.00774667,0.,0.,0.01219149,0.,0.,-0.
 04081595,0.,0.,0.02696638,0.,0.01067268,0.02018219,0.,0.00116193,0.000
 19763,0.,-0.00161214,0.00340148,0.,-0.10830754,-0.10590640,0.,0.117086
 99,0.,-0.01198427,-0.02406930,0.,0.00026076,0.00131569,0.,0.00336583,-
 0.00227083,0.,-0.10614137,-0.27841578,0.,0.11118060,0.29943744,0.00611
 892,0.,0.,0.01054759,0.,0.,-0.00721013,0.,0.,-0.05757883,0.,0.,0.00303
 358,0.,0.,0.12764051,0.,-0.03913652,0.02649695,0.,0.00108747,0.0010607
 8,0.,-0.00026292,-0.00184962,0.,-0.24147172,-0.02254161,0.,-0.01385897
 ,0.00297940,0.,0.64576887,0.,0.02105653,0.01385956,0.,0.00306207,-0.00
 338017,0.,-0.00110328,0.00087628,0.,0.02677913,-0.11173038,0.,-0.03031
 299,0.00151062,0.,0.07067530,0.75402587,0.00202853,0.,0.,-0.00001294,0
 .,0.,-0.00014052,0.,0.,0.00374775,0.,0.,-0.00104501,0.,0.,-0.04037002,
 0.,0.,0.02396099,0.,-0.00531089,-0.00244656,0.,-0.00088286,0.00121542,
 0.,0.00020834,0.00011230,0.,-0.01292160,0.03100827,0.,0.00092612,-0.00
 015111,0.,-0.10377980,0.09996395,0.,0.11295479,0.,-0.00009353,0.001194
 68,0.,-0.00003283,-0.00008176,0.,-0.00022423,0.00010455,0.,-0.00278055
 ,0.00090219,0.,0.00009067,0.00126696,0.,0.10162437,-0.28401090,0.,-0.1
 0850855,0.30512669,0.00061775,0.,0.,-0.00063731,0.,0.,0.00050105,0.,0.
 ,0.00467795,0.,0.,0.00243963,0.,0.,-0.05616140,0.,0.,0.00583317,0.,0.,
 0.12895351,0.,0.00743865,-0.01283725,0.,0.00028757,-0.00022838,0.,-0.0
 0030343,0.00030704,0.,-0.04799196,-0.01857811,0.,-0.00582876,0.0003054
 7,0.,-0.21264477,-0.15558171,0.,0.01357417,0.01191761,0.,0.64999389,0.
 ,0.00901596,-0.00637221,0.,0.00002021,-0.00091076,0.,0.00106824,-0.000
 39930,0.,-0.02537386,0.01440494,0.,0.00263007,0.00102359,0.,-0.1590761
 1,-0.35419096,0.,-0.01825955,-0.02439689,0.,0.06890179,0.75222248,0.00
 036323,0.,0.,-0.00024224,0.,0.,0.00114242,0.,0.,-0.00660023,0.,0.,-0.0
 0013384,0.,0.,0.00583240,0.,0.,0.01131635,0.,0.,-0.04142959,0.,0.,0.02
 495404,0.,-0.00053753,-0.00094447,0.,0.00016656,0.00014383,0.,-0.00174
 599,0.00029891,0.,-0.00058926,0.00066040,0.,0.00021006,0.00023200,0.,0
 .01345071,-0.01810505,0.,-0.00195910,-0.00329252,0.,-0.10540774,0.1013
 0881,0.,0.11515046,0.,-0.00025066,-0.00025798,0.,0.00004725,0.00054462
 ,0.,-0.00004130,0.00110663,0.,0.00173413,0.00069457,0.,-0.00007980,0.0
 0014684,0.,0.01187161,-0.02485154,0.,-0.00329111,-0.00261146,0.,0.1030
 3694,-0.28157932,0.,-0.10983679,0.30302614,-0.00050156,0.,0.,-0.000147
 27,0.,0.,-0.00033204,0.,0.,0.00867486,0.,0.,0.00014888,0.,0.,0.0049246
 3,0.,0.,-0.00654684,0.,0.,-0.05465742,0.,0.,0.00364199,0.,0.,0.1289535
 1,0.,-0.00388660,0.00633610,0.,0.00010001,0.00014785,0.,-0.00005883,-0
 .00004324,0.,0.01705332,-0.00672561,0.,0.00025128,0.00008836,0.,-0.050
 28405,-0.02935453,0.,-0.00068101,0.00170804,0.,-0.24780796,0.02777629,
 0.,-0.01380378,-0.00268984,0.,0.64999389,0.,0.00256464,-0.00250805,0.,
 0.00000483,0.00028407,0.,-0.00019832,0.00056035,0.,-0.00666103,-0.0033
 4009,0.,-0.00146385,0.00010318,0.,-0.01780875,0.01568269,0.,0.00092075
 ,0.00083502,0.,-0.02777629,-0.11257542,0.,0.03065357,0.00115667,0.,-0.
 06890179,0.75222248,0.00002689,0.,0.,0.00001447,0.,0.,-0.00000830,0.,0
 .,0.00005518,0.,0.,-0.00021527,0.,0.,0.00281849,0.,0.,-0.00018652,0.,0
 .,0.00364199,0.,0.,-0.00134946,0.,0.,-0.04142959,0.,0.,0.02495404,0.,-
 0.00017652,0.00004557,0.,-0.00004397,0.00005923,0.,-0.00000701,0.00004
 267,0.,0.00024948,-0.00146309,0.,-0.00050583,-0.00003361,0.,-0.0055896
 2,0.00255265,0.,0.00020467,-0.00009735,0.,-0.01380378,-0.03065357,0.,0
 .00093441,0.00001261,0.,-0.10540774,-0.10130881,0.,0.11515046,0.,-0.00
 009780,-0.00005082,0.,-0.00001736,0.00001640,0.,0.00001682,0.00000370,
 0.,0.00009784,0.00001775,0.,-0.00004022,0.00000583,0.,0.00032708,0.001
 13023,0.,0.00022670,0.00013550,0.,0.00268984,0.00115667,0.,-0.00001261
 ,0.00136624,0.,-0.10303694,-0.28157932,0.,0.10983679,0.30302614,-0.000
 06467,0.,0.,0.00013238,0.,0.,-0.00006487,0.,0.,-0.00063670,0.,0.,0.000
 02856,0.,0.,0.00052697,0.,0.,0.00048259,0.,0.,0.00492463,0.,0.,0.00281
 849,0.,0.,-0.05616140,0.,0.,0.00583240,0.,0.,0.12764051,0.,0.00130716,
 -0.00286512,0.,-0.00010095,-0.00009834,0.,0.00012496,-0.00011051,0.,-0
 .00624415,0.00333190,0.,-0.00020009,-0.00008955,0.,0.01235638,0.013827
 61,0.,-0.00052202,-0.00023659,0.,-0.05028405,0.01780875,0.,-0.00558962
 ,-0.00032708,0.,-0.21264477,0.15907611,0.,0.01345071,-0.01187161,0.,0.
 64576887,0.,-0.00162717,0.00260450,0.,0.00009814,-0.00001601,0.,-0.000
 02917,-0.00008311,0.,0.00618066,-0.00313150,0.,0.00006689,-0.00001994,
 0.,-0.01382761,-0.00775865,0.,-0.00122965,-0.00051658,0.,0.02935453,0.
 01568269,0.,-0.00255265,0.00113023,0.,0.15558171,-0.35419096,0.,0.0181
 0505,-0.02485154,0.,-0.07067530,0.75402587,-0.00007460,0.,0.,0.0001653
 1,0.,0.,-0.00001958,0.,0.,-0.00043998,0.,0.,0.00000980,0.,0.,0.0004825
 9,0.,0.,0.00129154,0.,0.,-0.00654684,0.,0.,-0.00018652,0.,0.,0.0058331
 7,0.,0.,0.01131635,0.,0.,-0.04037002,0.,0.,0.02396099,0.,0.00014098,-0
 .00002581,0.,0.00002667,-0.00002578,0.,-0.00000857,-0.00000167,0.,-0.0
 0011878,-0.00020135,0.,-0.00000687,0.00002309,0.,-0.00052202,0.0012296
 5,0.,-0.00184423,-0.00020761,0.,-0.00068101,-0.00092075,0.,0.00020467,
 -0.00022670,0.,0.01357417,0.01825955,0.,-0.00195910,0.00329111,0.,-0.1
 0377980,-0.09996395,0.,0.11295479,0.,-0.00013254,-0.00006279,0.,-0.000
 03985,0.00004127,0.,0.00000217,0.00001894,0.,-0.00001092,0.00061633,0.
 ,0.00004806,0.00000296,0.,0.00023659,-0.00051658,0.,0.00020761,0.00143
 529,0.,-0.00170804,0.00083502,0.,0.00009735,0.00013550,0.,-0.01191761,
 -0.02439689,0.,0.00329252,-0.00261146,0.,-0.10162437,-0.28401090,0.,0.
 10850855,0.30512669,0.00011563,0.,0.,-0.00025192,0.,0.,0.00015700,0.,0
 .,0.00020210,0.,0.,-0.00002403,0.,0.,-0.00063670,0.,0.,-0.00043998,0.,
 0.,0.00867486,0.,0.,0.00005518,0.,0.,0.00467795,0.,0.,-0.00660023,0.,0
 .,-0.05757883,0.,0.,0.00374775,0.,0.,0.12941807,0.,-0.00070366,0.00173
 828,0.,0.00008634,-0.00000891,0.,-0.00004269,-0.00001348,0.,0.00346848
 ,-0.00200784,0.,0.00017313,0.00006868,0.,-0.00624415,-0.00618066,0.,-0
 .00011878,0.00001092,0.,0.01705332,0.00666103,0.,0.00024948,-0.0000978
 4,0.,-0.04799196,0.02537386,0.,-0.00058926,-0.00173413,0.,-0.24147172,
 -0.02677913,0.,-0.01292160,0.00278055,0.,0.64881252,0.,-0.00092225,0.0
 0053290,0.,-0.00005226,0.00009183,0.,-0.00002038,0.00004233,0.,0.00200
 784,0.00018294,0.,-0.00000432,-0.00006696,0.,-0.00333190,-0.00313150,0
 .,0.00020135,0.00061633,0.,0.00672561,-0.00334009,0.,0.00146309,0.0000
 1775,0.,0.01857811,0.01440494,0.,-0.00066040,0.00069457,0.,0.02254161,
 -0.11173038,0.,-0.03100827,0.00090219,0.,0.09144307,0.77656253,0.00000
 131,0.,0.,0.00000372,0.,0.,0.00000026,0.,0.,-0.00002403,0.,0.,0.000006
 73,0.,0.,0.00002856,0.,0.,0.00000980,0.,0.,0.00014888,0.,0.,-0.0002152
 7,0.,0.,0.00243963,0.,0.,-0.00013384,0.,0.,0.00303358,0.,0.,-0.0010450
 1,0.,0.,-0.04081595,0.,0.,0.02696638,0.,-0.00011373,0.00003689,0.,-0.0
 0001806,-0.00000164,0.,0.00001669,-0.00002002,0.,0.00017313,0.00000432
 ,0.,-0.00004690,-0.00002521,0.,-0.00020009,-0.00006689,0.,-0.00000687,
 -0.00004806,0.,0.00025128,0.00146385,0.,-0.00050583,0.00004022,0.,-0.0
 0582876,-0.00263007,0.,0.00021006,0.00007980,0.,-0.01385897,0.03031299
 ,0.,0.00092612,-0.00009067,0.,-0.10830754,0.10590640,0.,0.11708699,0.,
 0.00007091,0.00000906,0.,0.00001305,-0.00000403,0.,-0.00000490,0.00000
 455,0.,-0.00006868,-0.00006696,0.,0.00002521,0.00002014,0.,0.00008955,
 -0.00001994,0.,-0.00002309,0.00000296,0.,-0.00008836,0.00010318,0.,0.0
 0003361,0.00000583,0.,-0.00030547,0.00102359,0.,-0.00023200,0.00014684
 ,0.,-0.00297940,0.00151062,0.,0.00015111,0.00126696,0.,0.10614137,-0.2
 7841578,0.,-0.11118060,0.29943744,-0.00001037,0.,0.,-0.00000944,0.,0.,
 -0.00000403,0.,0.,0.00011563,0.,0.,0.00000131,0.,0.,-0.00006467,0.,0.,
 -0.00007460,0.,0.,-0.00050156,0.,0.,0.00002689,0.,0.,0.00061775,0.,0.,
 0.00036323,0.,0.,0.00611892,0.,0.,0.00202853,0.,0.,-0.04965527,0.,0.,0
 .00515043,0.,0.,0.09987472,0.,-0.00011373,-0.00055746,0.,-0.00006719,0
 .00003405,0.,0.00002803,0.00000825,0.,-0.00070366,0.00092225,0.,-0.000
 11373,-0.00007091,0.,0.00130716,0.00162717,0.,0.00014098,0.00013254,0.
 ,-0.00388660,-0.00256464,0.,-0.00017652,0.00009780,0.,0.00743865,-0.00
 901596,0.,-0.00053753,0.00025066,0.,-0.03913652,-0.02105653,0.,-0.0053
 1089,0.00009353,0.,-0.24990321,-0.19917065,0.,0.01067268,0.01198427,0.
 ,0.71725917,0.,0.00055746,-0.00066999,0.,-0.00000761,-0.00002645,0.,0.
 00001331,-0.00000581,0.,-0.00173828,0.00053290,0.,-0.00003689,0.000009
 06,0.,0.00286512,0.00260450,0.,0.00002581,-0.00006279,0.,-0.00633610,-
 0.00250805,0.,-0.00004557,-0.00005082,0.,0.01283725,-0.00637221,0.,0.0
 0094447,-0.00025798,0.,-0.02649695,0.01385956,0.,0.00244656,0.00119468
 ,0.,-0.18008599,-0.38177638,0.,-0.02018219,-0.02406930,0.,0.08670585,0
 .76334695,-0.00000944,0.,0.,0.00006866,0.,0.,-0.00004305,0.,0.,-0.0002
 5192,0.,0.,0.00000372,0.,0.,0.00013238,0.,0.,0.00016531,0.,0.,-0.00014
 727,0.,0.,0.00001447,0.,0.,-0.00063731,0.,0.,-0.00024224,0.,0.,0.01054
 759,0.,0.,-0.00001294,0.,0.,0.00398126,0.,0.,-0.00774667,0.,0.,-0.0291
 8842,0.,0.,0.02068002,0.,-0.00006719,0.00000761,0.,-0.00001295,0.00000
 444,0.,0.00000638,-0.00000409,0.,0.00008634,0.00005226,0.,-0.00001806,
 -0.00001305,0.,-0.00010095,-0.00009814,0.,0.00002667,0.00003985,0.,0.0
 0010001,-0.00000483,0.,-0.00004397,0.00001736,0.,0.00028757,-0.0000202
 1,0.,0.00016656,-0.00004725,0.,0.00108747,-0.00306207,0.,-0.00088286,0
 .00003283,0.,-0.01539223,0.00453353,0.,0.00116193,-0.00026076,0.,-0.34
 114554,0.03435509,0.,0.36101380,0.,-0.00003405,-0.00002645,0.,-0.00000
 444,0.00000568,0.,0.00000047,0.00000316,0.,0.00000891,0.00009183,0.,0.
 00000164,-0.00000403,0.,0.00009834,-0.00001601,0.,0.00002578,0.0000412
 7,0.,-0.00014785,0.00028407,0.,-0.00005923,0.00001640,0.,0.00022838,-0
 .00091076,0.,-0.00014383,0.00054462,0.,-0.00106078,-0.00338017,0.,-0.0
 0121542,-0.00008176,0.,-0.02848988,0.00554640,0.,-0.00019763,0.0013156
 9,0.,0.03881297,-0.06226716,0.,-0.03495309,0.05894737,-0.00000403,0.,0
 .,-0.00004305,0.,0.,0.00004448,0.,0.,0.00015700,0.,0.,0.00000026,0.,0.
 ,-0.00006487,0.,0.,-0.00001958,0.,0.,-0.00033204,0.,0.,-0.00000830,0.,
 0.,0.00050105,0.,0.,0.00114242,0.,0.,-0.00721013,0.,0.,-0.00014052,0.,
 0.,0.00497310,0.,0.,0.01219149,0.,0.,-0.03478905,0.,0.,0.00268584,0.,0
 .,0.02091595,0.,0.00002803,-0.00001331,0.,0.00000638,-0.00000047,0.,-0
 .00000558,0.00000323,0.,-0.00004269,0.00002038,0.,0.00001669,0.0000049
 0,0.,0.00012496,0.00002917,0.,-0.00000857,-0.00000217,0.,-0.00005883,0
 .00019832,0.,-0.00000701,-0.00001682,0.,-0.00030343,-0.00106824,0.,-0.
 00174599,0.00004130,0.,-0.00026292,0.00110328,0.,0.00020834,0.00022423
 ,0.,0.01384353,-0.01823018,0.,-0.00161214,-0.00336583,0.,-0.09575155,0
 .09417865,0.,-0.00627297,0.02712972,0.,0.09184375,0.,-0.00000825,-0.00
 000581,0.,0.00000409,0.00000316,0.,-0.00000323,0.00000741,0.,0.0000134
 8,0.00004233,0.,0.00002002,0.00000455,0.,0.00011051,-0.00008311,0.,0.0
 0000167,0.00001894,0.,0.00004324,0.00056035,0.,-0.00004267,0.00000370,
 0.,-0.00030704,-0.00039930,0.,-0.00029891,0.00110663,0.,0.00184962,0.0
 0087628,0.,-0.00011230,0.00010455,0.,0.01118009,-0.02113361,0.,-0.0034
 0148,-0.00227083,0.,0.09176681,-0.30348071,0.,-0.00057948,-0.00011016,
 0.,-0.10023615,0.32475563\\0.,-0.00000002,0.00001649,0.,0.00000917,0.0
 0000301,0.,-0.00001130,-0.00002378,0.,-0.00002395,-0.00001612,0.,0.000
 01644,0.00001634,0.,0.00006577,0.00002110,0.,-0.00001151,0.00002296,0.
 ,-0.00000858,-0.00001405,0.,0.00003410,-0.00002595,0.,0.00000858,-0.00
 001405,0.,-0.00003410,-0.00002595,0.,-0.00006577,0.00002110,0.,0.00001
 151,0.00002296,0.,0.00002395,-0.00001612,0.,-0.00001644,0.00001634,0.,
 0.00000002,0.00001649,0.,-0.00000917,0.00000301,0.,0.00001130,-0.00002
 378\\\@


 THE PROBLEM WITH THE LADDER OF SUCCESS IS YOU CAN'T
 CLIMB IT WHILE YOU'RE TWIDDLING YOUR THUMBS.
 Job cpu time:  0 days  0 hours  1 minutes 31.4 seconds.
 File lengths (MBytes):  RWF=     31 Int=      0 D2E=      0 Chk=      3 Scr=      1
 Normal termination of Gaussian 09 at Tue Mar  2 14:31:31 2021.
