 Entering Gaussian System, Link 0=g09
 Input=octa_1-cis.com
 Output=octa_1-cis.log
 Initial command:
 /home/student/g09/l1.exe /home/student/Aniruddha_1811022/Lab_3/Gau-9573.inp -scrdir=/home/student/Aniruddha_1811022/Lab_3/
 Entering Link 1 = /home/student/g09/l1.exe PID=      9577.
  
 Copyright (c) 1988,1990,1992,1993,1995,1998,2003,2009,2011,
            Gaussian, Inc.  All Rights Reserved.
  
 This is part of the Gaussian(R) 09 program.  It is based on
 the Gaussian(R) 03 system (copyright 2003, Gaussian, Inc.),
 the Gaussian(R) 98 system (copyright 1998, Gaussian, Inc.),
 the Gaussian(R) 94 system (copyright 1995, Gaussian, Inc.),
 the Gaussian 92(TM) system (copyright 1992, Gaussian, Inc.),
 the Gaussian 90(TM) system (copyright 1990, Gaussian, Inc.),
 the Gaussian 88(TM) system (copyright 1988, Gaussian, Inc.),
 the Gaussian 86(TM) system (copyright 1986, Carnegie Mellon
 University), and the Gaussian 82(TM) system (copyright 1983,
 Carnegie Mellon University). Gaussian is a federally registered
 trademark of Gaussian, Inc.
  
 This software contains proprietary and confidential information,
 including trade secrets, belonging to Gaussian, Inc.
  
 This software is provided under written license and may be
 used, copied, transmitted, or stored only in accord with that
 written license.
  
 The following legend is applicable only to US Government
 contracts under FAR:
  
                    RESTRICTED RIGHTS LEGEND
  
 Use, reproduction and disclosure by the US Government is
 subject to restrictions as set forth in subparagraphs (a)
 and (c) of the Commercial Computer Software - Restricted
 Rights clause in FAR 52.227-19.
  
 Gaussian, Inc.
 340 Quinnipiac St., Bldg. 40, Wallingford CT 06492
  
  
 ---------------------------------------------------------------
 Warning -- This program may not be used in any manner that
 competes with the business of Gaussian, Inc. or will provide
 assistance to any competitor of Gaussian, Inc.  The licensee
 of this program is prohibited from giving any competitor of
 Gaussian, Inc. access to this program.  By using this program,
 the user acknowledges that Gaussian, Inc. is engaged in the
 business of creating and licensing software in the field of
 computational chemistry and represents and warrants to the
 licensee that it is not a competitor of Gaussian, Inc. and that
 it will not use this program in any manner prohibited above.
 ---------------------------------------------------------------
  

 Cite this work as:
 Gaussian 09, Revision C.01,
 M. J. Frisch, G. W. Trucks, H. B. Schlegel, G. E. Scuseria, 
 M. A. Robb, J. R. Cheeseman, G. Scalmani, V. Barone, B. Mennucci, 
 G. A. Petersson, H. Nakatsuji, M. Caricato, X. Li, H. P. Hratchian, 
 A. F. Izmaylov, J. Bloino, G. Zheng, J. L. Sonnenberg, M. Hada, 
 M. Ehara, K. Toyota, R. Fukuda, J. Hasegawa, M. Ishida, T. Nakajima, 
 Y. Honda, O. Kitao, H. Nakai, T. Vreven, J. A. Montgomery, Jr., 
 J. E. Peralta, F. Ogliaro, M. Bearpark, J. J. Heyd, E. Brothers, 
 K. N. Kudin, V. N. Staroverov, T. Keith, R. Kobayashi, J. Normand, 
 K. Raghavachari, A. Rendell, J. C. Burant, S. S. Iyengar, J. Tomasi, 
 M. Cossi, N. Rega, J. M. Millam, M. Klene, J. E. Knox, J. B. Cross, 
 V. Bakken, C. Adamo, J. Jaramillo, R. Gomperts, R. E. Stratmann, 
 O. Yazyev, A. J. Austin, R. Cammi, C. Pomelli, J. W. Ochterski, 
 R. L. Martin, K. Morokuma, V. G. Zakrzewski, G. A. Voth, 
 P. Salvador, J. J. Dannenberg, S. Dapprich, A. D. Daniels, 
 O. Farkas, J. B. Foresman, J. V. Ortiz, J. Cioslowski, 
 and D. J. Fox, Gaussian, Inc., Wallingford CT, 2010.
 
 ******************************************
 Gaussian 09:  EM64L-G09RevC.01 23-Sep-2011
                 2-Mar-2021 
 ******************************************
 %chk=octa_1-cis.chk
 -----------------------------------------
 # b3lyp/6-31g* geom=connectivity opt freq
 -----------------------------------------
 1/14=-1,18=20,19=15,26=3,38=1,57=2/1,3;
 2/9=110,12=2,17=6,18=5,40=1/2;
 3/5=1,6=6,7=1,11=2,16=1,25=1,30=1,71=1,74=-5/1,2,3;
 4//1;
 5/5=2,38=5/2;
 6/7=2,8=2,9=2,10=2,28=1/1;
 7//1,2,3,16;
 1/14=-1,18=20,19=15/3(2);
 2/9=110/2;
 99//99;
 2/9=110/2;
 3/5=1,6=6,7=1,11=2,16=1,25=1,30=1,71=1,74=-5/1,2,3;
 4/5=5,16=3/1;
 5/5=2,38=5/2;
 7//1,2,3,16;
 1/14=-1,18=20,19=15/3(-5);
 2/9=110/2;
 6/7=2,8=2,9=2,10=2,19=2,28=1/1;
 99/9=1/99;
 -------------------
 Title Card Required
 -------------------
 Charge =  0 Multiplicity = 1
 Symbolic Z-Matrix:
 C                     0.79059  -3.76368   1.17017 
 H                     1.31853  -4.68995   1.17017 
 H                     0.52894  -3.30461   2.09726 
 C                     0.45219  -3.16994   0. 
 H                     0.71383  -3.629    -0.92709 
 C                    -0.30765  -1.8368    0. 
 H                    -0.56929  -1.37773  -0.92709 
 C                    -0.64605  -1.24306   1.17017 
 H                    -0.38937  -1.69342   2.08799 
 C                    -1.39877   0.0776    1.18347 
 H                    -1.65546   0.52796   0.26565 
 C                    -1.73717   0.67134   2.35363 
 H                    -1.47553   0.21228   3.28072 
 C                    -2.49701   2.00448   2.35363 
 H                    -2.75865   2.46355   1.42654 
 C                    -2.83541   2.59822   3.5238 
 H                    -3.36335   3.52449   3.5238 
 H                    -2.57377   2.13916   4.45089 
 

 GradGradGradGradGradGradGradGradGradGradGradGradGradGradGradGradGradGrad
 Berny optimization.
 Initialization pass.
                           ----------------------------
                           !    Initial Parameters    !
                           ! (Angstroms and Degrees)  !
 --------------------------                            --------------------------
 ! Name  Definition              Value          Derivative Info.                !
 --------------------------------------------------------------------------------
 ! R1    R(1,2)                  1.0662         estimate D2E/DX2                !
 ! R2    R(1,3)                  1.0671         estimate D2E/DX2                !
 ! R3    R(1,4)                  1.3551         estimate D2E/DX2                !
 ! R4    R(4,5)                  1.0671         estimate D2E/DX2                !
 ! R5    R(4,6)                  1.5345         estimate D2E/DX2                !
 ! R6    R(6,7)                  1.0671         estimate D2E/DX2                !
 ! R7    R(6,8)                  1.3551         estimate D2E/DX2                !
 ! R8    R(8,9)                  1.0541         estimate D2E/DX2                !
 ! R9    R(8,10)                 1.5202         estimate D2E/DX2                !
 ! R10   R(10,11)                1.0541         estimate D2E/DX2                !
 ! R11   R(10,12)                1.3551         estimate D2E/DX2                !
 ! R12   R(12,13)                1.0671         estimate D2E/DX2                !
 ! R13   R(12,14)                1.5345         estimate D2E/DX2                !
 ! R14   R(14,15)                1.0671         estimate D2E/DX2                !
 ! R15   R(14,16)                1.3551         estimate D2E/DX2                !
 ! R16   R(16,17)                1.0662         estimate D2E/DX2                !
 ! R17   R(16,18)                1.0671         estimate D2E/DX2                !
 ! A1    A(2,1,3)              119.6808         estimate D2E/DX2                !
 ! A2    A(2,1,4)              120.2859         estimate D2E/DX2                !
 ! A3    A(3,1,4)              120.0332         estimate D2E/DX2                !
 ! A4    A(1,4,5)              120.0332         estimate D2E/DX2                !
 ! A5    A(1,4,6)              120.2859         estimate D2E/DX2                !
 ! A6    A(5,4,6)              119.6808         estimate D2E/DX2                !
 ! A7    A(4,6,7)              119.6808         estimate D2E/DX2                !
 ! A8    A(4,6,8)              120.2859         estimate D2E/DX2                !
 ! A9    A(7,6,8)              120.0332         estimate D2E/DX2                !
 ! A10   A(6,8,9)              120.2567         estimate D2E/DX2                !
 ! A11   A(6,8,10)             120.7871         estimate D2E/DX2                !
 ! A12   A(9,8,10)             118.9562         estimate D2E/DX2                !
 ! A13   A(8,10,11)            118.9562         estimate D2E/DX2                !
 ! A14   A(8,10,12)            120.7871         estimate D2E/DX2                !
 ! A15   A(11,10,12)           120.2567         estimate D2E/DX2                !
 ! A16   A(10,12,13)           120.0332         estimate D2E/DX2                !
 ! A17   A(10,12,14)           120.2859         estimate D2E/DX2                !
 ! A18   A(13,12,14)           119.6808         estimate D2E/DX2                !
 ! A19   A(12,14,15)           119.6808         estimate D2E/DX2                !
 ! A20   A(12,14,16)           120.2859         estimate D2E/DX2                !
 ! A21   A(15,14,16)           120.0332         estimate D2E/DX2                !
 ! A22   A(14,16,17)           120.2859         estimate D2E/DX2                !
 ! A23   A(14,16,18)           120.0332         estimate D2E/DX2                !
 ! A24   A(17,16,18)           119.6808         estimate D2E/DX2                !
 ! D1    D(2,1,4,5)              0.0            estimate D2E/DX2                !
 ! D2    D(2,1,4,6)            180.0            estimate D2E/DX2                !
 ! D3    D(3,1,4,5)            180.0            estimate D2E/DX2                !
 ! D4    D(3,1,4,6)              0.0            estimate D2E/DX2                !
 ! D5    D(1,4,6,7)            180.0            estimate D2E/DX2                !
 ! D6    D(1,4,6,8)              0.0            estimate D2E/DX2                !
 ! D7    D(5,4,6,7)              0.0            estimate D2E/DX2                !
 ! D8    D(5,4,6,8)            180.0            estimate D2E/DX2                !
 ! D9    D(4,6,8,9)              0.0            estimate D2E/DX2                !
 ! D10   D(4,6,8,10)           180.0            estimate D2E/DX2                !
 ! D11   D(7,6,8,9)           -180.0            estimate D2E/DX2                !
 ! D12   D(7,6,8,10)             0.0            estimate D2E/DX2                !
 ! D13   D(6,8,10,11)            0.0            estimate D2E/DX2                !
 ! D14   D(6,8,10,12)          180.0            estimate D2E/DX2                !
 ! D15   D(9,8,10,11)          180.0            estimate D2E/DX2                !
 ! D16   D(9,8,10,12)            0.0            estimate D2E/DX2                !
 ! D17   D(8,10,12,13)           0.0            estimate D2E/DX2                !
 ! D18   D(8,10,12,14)         180.0            estimate D2E/DX2                !
 ! D19   D(11,10,12,13)        180.0            estimate D2E/DX2                !
 ! D20   D(11,10,12,14)          0.0            estimate D2E/DX2                !
 ! D21   D(10,12,14,15)          0.0            estimate D2E/DX2                !
 ! D22   D(10,12,14,16)        180.0            estimate D2E/DX2                !
 ! D23   D(13,12,14,15)        180.0            estimate D2E/DX2                !
 ! D24   D(13,12,14,16)          0.0            estimate D2E/DX2                !
 ! D25   D(12,14,16,17)        180.0            estimate D2E/DX2                !
 ! D26   D(12,14,16,18)          0.0            estimate D2E/DX2                !
 ! D27   D(15,14,16,17)          0.0            estimate D2E/DX2                !
 ! D28   D(15,14,16,18)        180.0            estimate D2E/DX2                !
 --------------------------------------------------------------------------------
 Trust Radius=3.00D-01 FncErr=1.00D-07 GrdErr=1.00D-06
 Number of steps in this run=     79 maximum allowed number of steps=    108.
 GradGradGradGradGradGradGradGradGradGradGradGradGradGradGradGradGradGrad

                          Input orientation:                          
 ---------------------------------------------------------------------
 Center     Atomic      Atomic             Coordinates (Angstroms)
 Number     Number       Type             X           Y           Z
 ---------------------------------------------------------------------
      1          6           0        0.790590   -3.763678    1.170168
      2          1           0        1.318525   -4.689952    1.170168
      3          1           0        0.528944   -3.304614    2.097257
      4          6           0        0.452185   -3.169940    0.000000
      5          1           0        0.713831   -3.629003   -0.927089
      6          6           0       -0.307647   -1.836798    0.000000
      7          1           0       -0.569293   -1.377734   -0.927089
      8          6           0       -0.646052   -1.243060    1.170168
      9          1           0       -0.389366   -1.693421    2.087985
     10          6           0       -1.398770    0.077601    1.183466
     11          1           0       -1.655456    0.527962    0.265648
     12          6           0       -1.737175    0.671339    2.353633
     13          1           0       -1.475529    0.212276    3.280723
     14          6           0       -2.497007    2.004482    2.353633
     15          1           0       -2.758653    2.463545    1.426544
     16          6           0       -2.835412    2.598220    3.523801
     17          1           0       -3.363347    3.524494    3.523801
     18          1           0       -2.573766    2.139156    4.450890
 ---------------------------------------------------------------------
                    Distance matrix (angstroms):
                    1          2          3          4          5
     1  C    0.000000
     2  H    1.066161   0.000000
     3  H    1.067095   1.844477   0.000000
     4  C    1.355114   2.104822   2.102978   0.000000
     5  H    2.102978   2.426882   3.047308   1.067095   0.000000
     6  C    2.507645   3.486290   2.693113   1.534475   2.261618
     7  H    3.455502   4.351222   3.750422   2.261618   2.591259
     8  C    2.901285   3.967446   2.547571   2.507645   3.455502
     9  H    2.553556   3.569101   1.854542   2.692211   3.748893
    10  C    4.421414   5.487571   3.998810   3.920861   4.759879
    11  H    5.021899   6.073660   4.776509   4.264646   4.931177
    12  C    5.240187   6.283418   4.583583   5.008824   5.938309
    13  H    5.039637   6.024369   4.217466   5.091032   6.103639
    14  C    6.743927   7.795789   6.116258   6.404059   7.266965
    15  H    7.172249   8.237817   6.673066   6.639327   7.397086
    16  C    7.691633   8.712762   6.942432   7.516457   8.437171
    17  H    8.712762   9.743544   7.988847   8.472951   9.359825
    18  H    7.544898   8.517617   6.693357   7.559981   8.544157
                    6          7          8          9         10
     6  C    0.000000
     7  H    1.067095   0.000000
     8  C    1.355114   2.102978   0.000000
     9  H    2.094497   3.036891   1.054088   0.000000
    10  C    2.501212   2.694527   1.520167   2.230151   0.000000
    11  H    2.734821   2.496808   2.230151   3.139815   1.054088
    12  C    3.724767   4.040519   2.501212   2.734821   1.355114
    13  H    4.040519   4.588581   2.694527   2.496808   2.102978
    14  C    5.008824   5.091032   3.920861   4.264646   2.507645
    15  H    5.151253   5.008824   4.274077   4.830258   2.757008
    16  C    6.202914   6.383880   5.008824   5.144209   3.727549
    17  H    7.106189   7.186724   5.971001   6.175173   4.606278
    18  H    6.383880   6.731203   5.091032   5.004355   4.038154
                   11         12         13         14         15
    11  H    0.000000
    12  C    2.094497   0.000000
    13  H    3.036891   1.067095   0.000000
    14  C    2.692211   1.534475   2.261618   0.000000
    15  H    2.512211   2.261618   3.186315   1.067095   0.000000
    16  C    4.036561   2.507645   2.757008   1.355114   2.102978
    17  H    4.744645   3.486290   3.820175   2.104822   2.426882
    18  H    4.577717   2.693113   2.507645   2.102978   3.047308
                   16         17         18
    16  C    0.000000
    17  H    1.066161   0.000000
    18  H    1.067095   1.844477   0.000000
 Stoichiometry    C8H10
 Framework group  CS[SG(C8H10)]
 Deg. of freedom    33
 Full point group                 CS      NOp   2
 Largest Abelian subgroup         CS      NOp   2
 Largest concise Abelian subgroup C1      NOp   1
                         Standard orientation:                         
 ---------------------------------------------------------------------
 Center     Atomic      Atomic             Coordinates (Angstroms)
 Number     Number       Type             X           Y           Z
 ---------------------------------------------------------------------
      1          6           0       -1.417143   -3.391998    0.000000
      2          1           0       -1.914657   -4.334962    0.000000
      3          1           0       -1.990536   -2.492046    0.000000
      4          6           0       -0.063287   -3.333610    0.000000
      5          1           0        0.510106   -4.233561    0.000000
      6          6           0        0.652760   -1.976447    0.000000
      7          1           0        1.719291   -1.941730    0.000000
      8          6           0       -0.063287   -0.825964    0.000000
      9          1           0       -1.116943   -0.856149    0.000000
     10          6           0        0.634295    0.524697    0.000000
     11          1           0        1.687951    0.554882    0.000000
     12          6           0       -0.081752    1.675180    0.000000
     13          1           0       -1.148283    1.640462    0.000000
     14          6           0        0.634295    3.032342    0.000000
     15          1           0        1.700826    3.067060    0.000000
     16          6           0       -0.081752    4.182825    0.000000
     17          1           0        0.415761    5.125789    0.000000
     18          1           0       -1.148283    4.148107    0.000000
 ---------------------------------------------------------------------
 Rotational constants (GHZ):      9.7503242      0.6349300      0.5961119
 Standard basis: 6-31G(d) (6D, 7F)
 There are   108 symmetry adapted basis functions of A'  symmetry.
 There are    32 symmetry adapted basis functions of A"  symmetry.
 Integral buffers will be    131072 words long.
 Raffenetti 2 integral format.
 Two-electron integral symmetry is turned on.
   140 basis functions,   264 primitive gaussians,   140 cartesian basis functions
    29 alpha electrons       29 beta electrons
       nuclear repulsion energy       298.4190271299 Hartrees.
 NAtoms=   18 NActive=   18 NUniq=   18 SFac= 1.00D+00 NAtFMM=   60 NAOKFM=F Big=F
 One-electron integrals computed using PRISM.
 NBasis=   140 RedAO= T  NBF=   108    32
 NBsUse=   140 1.00D-06 NBFU=   108    32
 Harris functional with IExCor=  402 diagonalized for initial guess.
 ExpMin= 1.61D-01 ExpMax= 3.05D+03 ExpMxC= 4.57D+02 IAcc=1 IRadAn=         1 AccDes= 0.00D+00
 HarFok:  IExCor=  402 AccDes= 0.00D+00 IRadAn=         1 IDoV= 1
 ScaDFX=  1.000000  1.000000  1.000000  1.000000
 FoFCou: FMM=F IPFlag=           0 FMFlag=      100000 FMFlg1=           0
         NFxFlg=           0 DoJE=T BraDBF=F KetDBF=T FulRan=T
         Omega=  0.000000  0.000000  1.000000  0.000000  0.000000 ICntrl=     500 IOpCl=  0
         NMat0=    1 NMatS0=    1 NMatT0=    0 NMatD0=    1 NMtDS0=    0 NMtDT0=    0
         I1Cent=           4 NGrid=           0.
 Petite list used in FoFCou.
 Initial guess orbital symmetries:
       Occupied  (A') (A') (A') (A') (A') (A') (A') (A') (A') (A')
                 (A') (A') (A') (A') (A') (A') (A') (A') (A') (A')
                 (A') (A') (A') (A') (A') (A") (A") (A") (A")
       Virtual   (A") (A") (A") (A") (A') (A') (A') (A') (A') (A')
                 (A') (A') (A') (A') (A') (A') (A') (A') (A') (A')
                 (A') (A') (A') (A") (A") (A') (A') (A") (A') (A')
                 (A") (A') (A") (A') (A') (A') (A") (A") (A") (A')
                 (A') (A') (A') (A') (A') (A') (A') (A') (A') (A')
                 (A') (A') (A') (A') (A') (A') (A') (A') (A') (A")
                 (A') (A") (A') (A") (A") (A") (A') (A") (A') (A")
                 (A") (A") (A') (A') (A') (A') (A') (A') (A") (A')
                 (A') (A") (A') (A') (A') (A") (A') (A') (A') (A")
                 (A') (A") (A") (A") (A') (A') (A') (A') (A') (A')
                 (A') (A') (A') (A') (A') (A') (A') (A') (A') (A')
                 (A')
 The electronic state of the initial guess is 1-A'.
 Requested convergence on RMS density matrix=1.00D-08 within 128 cycles.
 Requested convergence on MAX density matrix=1.00D-06.
 Requested convergence on             energy=1.00D-06.
 No special actions if energy rises.
 Integral accuracy reduced to 1.0D-05 until final iterations.
 Initial convergence to 1.0D-05 achieved.  Increase integral accuracy.
 SCF Done:  E(RB3LYP) =  -310.778842879     A.U. after   14 cycles
             Convg  =    0.4107D-08             -V/T =  2.0104

 **********************************************************************

            Population analysis using the SCF density.

 **********************************************************************

 Orbital symmetries:
       Occupied  (A') (A') (A') (A') (A') (A') (A') (A') (A') (A')
                 (A') (A') (A') (A') (A') (A') (A') (A') (A') (A')
                 (A') (A') (A') (A') (A') (A") (A") (A") (A")
       Virtual   (A") (A") (A") (A") (A') (A') (A') (A') (A') (A')
                 (A') (A') (A') (A') (A') (A') (A') (A') (A') (A')
                 (A') (A') (A') (A") (A") (A') (A') (A") (A') (A')
                 (A") (A") (A') (A') (A") (A') (A') (A") (A") (A')
                 (A') (A') (A') (A') (A') (A') (A') (A') (A') (A')
                 (A') (A') (A') (A') (A') (A') (A') (A') (A') (A')
                 (A') (A") (A") (A") (A') (A") (A") (A') (A") (A")
                 (A") (A") (A') (A') (A') (A') (A') (A') (A") (A')
                 (A') (A") (A') (A') (A") (A') (A') (A') (A') (A")
                 (A') (A") (A") (A") (A') (A') (A') (A') (A') (A')
                 (A') (A') (A') (A') (A') (A') (A') (A') (A') (A')
                 (A')
 The electronic state is 1-A'.
 Alpha  occ. eigenvalues --  -10.19664 -10.19612 -10.19448 -10.19356 -10.19315
 Alpha  occ. eigenvalues --  -10.19206 -10.17899 -10.17844  -0.81289  -0.78734
 Alpha  occ. eigenvalues --   -0.74820  -0.70481  -0.62053  -0.58101  -0.56446
 Alpha  occ. eigenvalues --   -0.53475  -0.48671  -0.46828  -0.43423  -0.43192
 Alpha  occ. eigenvalues --   -0.39473  -0.39075  -0.36770  -0.36245  -0.33503
 Alpha  occ. eigenvalues --   -0.33365  -0.30227  -0.25462  -0.19908
 Alpha virt. eigenvalues --   -0.04984   0.01037   0.06911   0.10003   0.10060
 Alpha virt. eigenvalues --    0.12253   0.13034   0.13124   0.14977   0.16417
 Alpha virt. eigenvalues --    0.18442   0.19694   0.19948   0.22628   0.27710
 Alpha virt. eigenvalues --    0.30118   0.33028   0.34758   0.36116   0.39865
 Alpha virt. eigenvalues --    0.43968   0.47300   0.50778   0.52352   0.54203
 Alpha virt. eigenvalues --    0.55833   0.57401   0.57643   0.59965   0.61059
 Alpha virt. eigenvalues --    0.61189   0.62592   0.63028   0.65041   0.65542
 Alpha virt. eigenvalues --    0.67474   0.68291   0.70879   0.72442   0.83309
 Alpha virt. eigenvalues --    0.85331   0.86063   0.87482   0.88908   0.89564
 Alpha virt. eigenvalues --    0.90288   0.92144   0.93021   0.94753   0.96797
 Alpha virt. eigenvalues --    1.00034   1.02500   1.04769   1.05797   1.08984
 Alpha virt. eigenvalues --    1.10456   1.13624   1.21118   1.25378   1.30045
 Alpha virt. eigenvalues --    1.32568   1.33896   1.34547   1.37347   1.45312
 Alpha virt. eigenvalues --    1.45576   1.48223   1.51055   1.53269   1.62077
 Alpha virt. eigenvalues --    1.69673   1.72498   1.75082   1.77989   1.78883
 Alpha virt. eigenvalues --    1.94091   1.95548   1.96534   1.96727   2.01817
 Alpha virt. eigenvalues --    2.04874   2.10759   2.13324   2.16933   2.20974
 Alpha virt. eigenvalues --    2.21437   2.23986   2.29645   2.31666   2.32336
 Alpha virt. eigenvalues --    2.39885   2.40474   2.42738   2.48223   2.56110
 Alpha virt. eigenvalues --    2.58150   2.69171   2.74393   2.81947   2.86262
 Alpha virt. eigenvalues --    2.91946   3.00729   3.05982   4.05880   4.06875
 Alpha virt. eigenvalues --    4.10688   4.16753   4.18818   4.31520   4.42672
 Alpha virt. eigenvalues --    4.51757
          Condensed to atoms (all electrons):
              1          2          3          4          5          6
     1  C    5.050657   0.368047   0.363844   0.653836  -0.054634  -0.038490
     2  H    0.368047   0.555593  -0.040681  -0.025211  -0.006633   0.004508
     3  H    0.363844  -0.040681   0.565075  -0.030503   0.006258  -0.018977
     4  C    0.653836  -0.025211  -0.030503   4.799037   0.366482   0.403926
     5  H   -0.054634  -0.006633   0.006258   0.366482   0.594532  -0.040034
     6  C   -0.038490   0.004508  -0.018977   0.403926  -0.040034   4.935616
     7  H    0.005023  -0.000126  -0.000021  -0.042944  -0.003566   0.364564
     8  C   -0.021960   0.000261   0.005458  -0.021738   0.004380   0.611153
     9  H    0.004077  -0.000030   0.005254  -0.013586   0.000011  -0.051054
    10  C    0.000562  -0.000010   0.000230   0.003419  -0.000093  -0.016918
    11  H   -0.000002   0.000000   0.000003   0.000069   0.000000  -0.004594
    12  C    0.000014   0.000000  -0.000016  -0.000179   0.000001   0.002494
    13  H   -0.000005   0.000000  -0.000001  -0.000003   0.000000   0.000391
    14  C    0.000000   0.000000   0.000000   0.000001   0.000000  -0.000185
    15  H    0.000000   0.000000   0.000000   0.000000   0.000000  -0.000003
    16  C    0.000000   0.000000   0.000000   0.000000   0.000000   0.000003
    17  H    0.000000   0.000000   0.000000   0.000000   0.000000   0.000000
    18  H    0.000000   0.000000   0.000000   0.000000   0.000000   0.000000
              7          8          9         10         11         12
     1  C    0.005023  -0.021960   0.004077   0.000562  -0.000002   0.000014
     2  H   -0.000126   0.000261  -0.000030  -0.000010   0.000000   0.000000
     3  H   -0.000021   0.005458   0.005254   0.000230   0.000003  -0.000016
     4  C   -0.042944  -0.021738  -0.013586   0.003419   0.000069  -0.000179
     5  H   -0.003566   0.004380   0.000011  -0.000093   0.000000   0.000001
     6  C    0.364564   0.611153  -0.051054  -0.016918  -0.004594   0.002494
     7  H    0.600588  -0.056170   0.006529  -0.008696   0.004059   0.000420
     8  C   -0.056170   4.890474   0.357704   0.403579  -0.047617  -0.014870
     9  H    0.006529   0.357704   0.604385  -0.045827   0.004347  -0.004695
    10  C   -0.008696   0.403579  -0.045827   4.892990   0.367862   0.593895
    11  H    0.004059  -0.047617   0.004347   0.367862   0.599062  -0.055048
    12  C    0.000420  -0.014870  -0.004695   0.593895  -0.055048   4.914935
    13  H    0.000013  -0.008948   0.004348  -0.051549   0.006243   0.364519
    14  C   -0.000004   0.003290   0.000137  -0.016269  -0.008090   0.411236
    15  H    0.000001   0.000155   0.000005  -0.004029   0.003949  -0.045537
    16  C    0.000000  -0.000190  -0.000002   0.001908   0.000382  -0.026451
    17  H    0.000000   0.000002   0.000000  -0.000167  -0.000006   0.003912
    18  H    0.000000  -0.000002   0.000002   0.000459   0.000015  -0.011555
             13         14         15         16         17         18
     1  C   -0.000005   0.000000   0.000000   0.000000   0.000000   0.000000
     2  H    0.000000   0.000000   0.000000   0.000000   0.000000   0.000000
     3  H   -0.000001   0.000000   0.000000   0.000000   0.000000   0.000000
     4  C   -0.000003   0.000001   0.000000   0.000000   0.000000   0.000000
     5  H    0.000000   0.000000   0.000000   0.000000   0.000000   0.000000
     6  C    0.000391  -0.000185  -0.000003   0.000003   0.000000   0.000000
     7  H    0.000013  -0.000004   0.000001   0.000000   0.000000   0.000000
     8  C   -0.008948   0.003290   0.000155  -0.000190   0.000002  -0.000002
     9  H    0.004348   0.000137   0.000005  -0.000002   0.000000   0.000002
    10  C   -0.051549  -0.016269  -0.004029   0.001908  -0.000167   0.000459
    11  H    0.006243  -0.008090   0.003949   0.000382  -0.000006   0.000015
    12  C    0.364519   0.411236  -0.045537  -0.026451   0.003912  -0.011555
    13  H    0.594406  -0.044202   0.003854  -0.003672  -0.000015   0.004481
    14  C   -0.044202   4.791900   0.369170   0.629888  -0.023831  -0.035928
    15  H    0.003854   0.369170   0.593492  -0.052361  -0.006651   0.005843
    16  C   -0.003672   0.629888  -0.052361   5.057563   0.366051   0.372601
    17  H   -0.000015  -0.023831  -0.006651   0.366051   0.558605  -0.041058
    18  H    0.004481  -0.035928   0.005843   0.372601  -0.041058   0.562116
 Mulliken atomic charges:
              1
     1  C   -0.330971
     2  H    0.144282
     3  H    0.144077
     4  C   -0.092606
     5  H    0.133294
     6  C   -0.152398
     7  H    0.130330
     8  C   -0.104959
     9  H    0.128396
    10  C   -0.121345
    11  H    0.129367
    12  C   -0.133074
    13  H    0.130141
    14  C   -0.077113
    15  H    0.132112
    16  C   -0.345718
    17  H    0.143158
    18  H    0.143027
 Sum of Mulliken atomic charges =   0.00000
 Mulliken charges with hydrogens summed into heavy atoms:
              1
     1  C   -0.042611
     4  C    0.040687
     6  C   -0.022069
     8  C    0.023437
    10  C    0.008023
    12  C   -0.002933
    14  C    0.054999
    16  C   -0.059533
 Sum of Mulliken charges with hydrogens summed into heavy atoms =   0.00000
 Electronic spatial extent (au):  <R**2>=           1838.5744
 Charge=              0.0000 electrons
 Dipole moment (field-independent basis, Debye):
    X=              0.1570    Y=             -0.1021    Z=              0.0000  Tot=              0.1873
 Quadrupole moment (field-independent basis, Debye-Ang):
   XX=            -43.1093   YY=            -44.5217   ZZ=            -53.8378
   XY=             -0.2130   XZ=              0.0000   YZ=              0.0000
 Traceless Quadrupole moment (field-independent basis, Debye-Ang):
   XX=              4.0470   YY=              2.6346   ZZ=             -6.6815
   XY=             -0.2130   XZ=              0.0000   YZ=              0.0000
 Octapole moment (field-independent basis, Debye-Ang**2):
  XXX=              1.5191  YYY=             -5.2983  ZZZ=              0.0000  XYY=              3.2571
  XXY=              0.9603  XXZ=              0.0000  XZZ=              0.2243  YZZ=             -0.2894
  YYZ=              0.0000  XYZ=              0.0000
 Hexadecapole moment (field-independent basis, Debye-Ang**3):
 XXXX=           -222.1404 YYYY=          -2071.8886 ZZZZ=            -56.1163 XXXY=           -101.8959
 XXXZ=              0.0000 YYYX=            -92.5999 YYYZ=              0.0000 ZZZX=              0.0000
 ZZZY=              0.0000 XXYY=           -379.2515 XXZZ=            -52.1211 YYZZ=           -430.9650
 XXYZ=              0.0000 YYXZ=              0.0000 ZZXY=            -41.3388
 N-N= 2.984190271299D+02 E-N=-1.315318907687D+03  KE= 3.075708816770D+02
 Symmetry A'   KE= 2.991374151465D+02
 Symmetry A"   KE= 8.433466530442D+00
 Calling FoFJK, ICntrl=      2127 FMM=F ISym2X=1 I1Cent= 0 IOpClX= 0 NMat=1 NMatS=1 NMatT=0.
 ***** Axes restored to original set *****
 -------------------------------------------------------------------
 Center     Atomic                   Forces (Hartrees/Bohr)
 Number     Number              X              Y              Z
 -------------------------------------------------------------------
      1        6          -0.004706623    0.008257872   -0.033906602
      2        1           0.006915874   -0.012134049    0.003466919
      3        1           0.000679523   -0.001192237    0.013194964
      4        6          -0.017302859    0.030358238    0.032079041
      5        1           0.002064544   -0.003622288   -0.013885305
      6        6           0.021300243   -0.037371735    0.024375843
      7        1          -0.002330492    0.004088898   -0.013508452
      8        6          -0.028391722    0.049813888   -0.045255519
      9        1           0.002323776   -0.004077114    0.022262721
     10        6           0.026820315   -0.047056820    0.041516789
     11        1          -0.004658834    0.008174025   -0.023198046
     12        6          -0.025386561    0.044541267   -0.036554338
     13        1           0.001399694   -0.002455794    0.014847376
     14        6           0.021333580   -0.037430226    0.042935005
     15        1          -0.001319252    0.002314656   -0.015108014
     16        6           0.006614837   -0.011605874   -0.031186835
     17        1          -0.007121521    0.012494863    0.003963834
     18        1           0.001765479   -0.003097571    0.013960619
 -------------------------------------------------------------------
 Cartesian Forces:  Max     0.049813888 RMS     0.022599125

 GradGradGradGradGradGradGradGradGradGradGradGradGradGradGradGradGradGrad
 Berny optimization.
 Internal  Forces:  Max     0.042962820 RMS     0.012456982
 Search for a local minimum.
 Step number   1 out of a maximum of   79
 All quantities printed in internal units (Hartrees-Bohrs-Radians)
 Mixed Optimization -- RFO/linear search
 Second derivative matrix not updated -- first step.
 ITU=  0
     Eigenvalues ---    0.00310   0.00310   0.00499   0.01500   0.01500
     Eigenvalues ---    0.01500   0.01500   0.01605   0.01605   0.02683
     Eigenvalues ---    0.02683   0.02683   0.02683   0.02683   0.02683
     Eigenvalues ---    0.16000   0.16000   0.16000   0.16000   0.16000
     Eigenvalues ---    0.16000   0.16000   0.16000   0.16000   0.16000
     Eigenvalues ---    0.22000   0.22000   0.22000   0.22000   0.22000
     Eigenvalues ---    0.22000   0.29014   0.29014   0.30350   0.37600
     Eigenvalues ---    0.37600   0.37600   0.37600   0.37600   0.37600
     Eigenvalues ---    0.37719   0.37719   0.39316   0.39316   0.53947
     Eigenvalues ---    0.53947   0.53947   0.53947
 RFO step:  Lambda=-3.42907653D-02 EMin= 3.09906417D-03
 Linear search not attempted -- first point.
 Maximum step size (   0.300) exceeded in Quadratic search.
    -- Step size scaled by   0.882
 Iteration  1 RMS(Cart)=  0.13823910 RMS(Int)=  0.00735368
 Iteration  2 RMS(Cart)=  0.01295668 RMS(Int)=  0.00004712
 Iteration  3 RMS(Cart)=  0.00012168 RMS(Int)=  0.00000001
 Iteration  4 RMS(Cart)=  0.00000001 RMS(Int)=  0.00000000
 ClnCor:  largest displacement from symmetrization is 2.35D-08 for atom    18.
 Variable       Old X    -DE/DX   Delta X   Delta X   Delta X     New X
                                 (Linear)    (Quad)   (Total)
    R1        2.01475   0.01397   0.00000   0.02993   0.02993   2.04469
    R2        2.01652   0.01078   0.00000   0.02318   0.02318   2.03970
    R3        2.56079  -0.01195   0.00000  -0.01837  -0.01837   2.54242
    R4        2.01652   0.01413   0.00000   0.03037   0.03037   2.04689
    R5        2.89974  -0.02494   0.00000  -0.06780  -0.06780   2.83194
    R6        2.01652   0.01407   0.00000   0.03024   0.03024   2.04676
    R7        2.56079  -0.00346   0.00000  -0.00532  -0.00532   2.55548
    R8        1.99194   0.02169   0.00000   0.04476   0.04476   2.03669
    R9        2.87270  -0.03918   0.00000  -0.10229  -0.10229   2.77041
   R10        1.99194   0.02483   0.00000   0.05122   0.05122   2.04316
   R11        2.56079  -0.00340   0.00000  -0.00523  -0.00523   2.55557
   R12        2.01652   0.01430   0.00000   0.03074   0.03074   2.04726
   R13        2.89974  -0.04296   0.00000  -0.11679  -0.11679   2.78295
   R14        2.01652   0.01444   0.00000   0.03105   0.03105   2.04757
   R15        2.56079  -0.01273   0.00000  -0.01957  -0.01957   2.54122
   R16        2.01475   0.01438   0.00000   0.03082   0.03082   2.04558
   R17        2.01652   0.01390   0.00000   0.02987   0.02987   2.04639
    A1        2.08882  -0.00752   0.00000  -0.03414  -0.03414   2.05469
    A2        2.09939  -0.00054   0.00000  -0.00244  -0.00244   2.09694
    A3        2.09498   0.00806   0.00000   0.03658   0.03658   2.13156
    A4        2.09498  -0.01240   0.00000  -0.03950  -0.03950   2.05547
    A5        2.09939   0.03137   0.00000   0.10879   0.10879   2.20818
    A6        2.08882  -0.01897   0.00000  -0.06929  -0.06929   2.01953
    A7        2.08882  -0.01761   0.00000  -0.06389  -0.06389   2.02493
    A8        2.09939   0.02998   0.00000   0.10399   0.10399   2.20337
    A9        2.09498  -0.01237   0.00000  -0.04010  -0.04010   2.05488
   A10        2.09888   0.00374   0.00000   0.02028   0.02028   2.11915
   A11        2.10813   0.00620   0.00000   0.02149   0.02149   2.12962
   A12        2.07618  -0.00993   0.00000  -0.04177  -0.04177   2.03441
   A13        2.07618  -0.00780   0.00000  -0.03047  -0.03047   2.04571
   A14        2.10813   0.00919   0.00000   0.03186   0.03186   2.13999
   A15        2.09888  -0.00139   0.00000  -0.00139  -0.00139   2.09748
   A16        2.09498  -0.00029   0.00000   0.00427   0.00427   2.09924
   A17        2.09939   0.01046   0.00000   0.03628   0.03628   2.13567
   A18        2.08882  -0.01017   0.00000  -0.04055  -0.04055   2.04828
   A19        2.08882  -0.01068   0.00000  -0.04262  -0.04262   2.04621
   A20        2.09939   0.01094   0.00000   0.03795   0.03795   2.13733
   A21        2.09498  -0.00026   0.00000   0.00467   0.00467   2.09965
   A22        2.09939   0.00276   0.00000   0.01253   0.01253   2.11192
   A23        2.09498   0.00247   0.00000   0.01119   0.01119   2.10617
   A24        2.08882  -0.00523   0.00000  -0.02373  -0.02373   2.06510
    D1        0.00000   0.00000   0.00000   0.00000   0.00000   0.00000
    D2       -3.14159   0.00000   0.00000   0.00000   0.00000   3.14159
    D3        3.14159   0.00000   0.00000   0.00000   0.00000   3.14159
    D4        0.00000   0.00000   0.00000   0.00000   0.00000   0.00000
    D5        3.14159   0.00000   0.00000   0.00000   0.00000   3.14159
    D6        0.00000   0.00000   0.00000   0.00000   0.00000   0.00000
    D7        0.00000   0.00000   0.00000   0.00000   0.00000   0.00000
    D8       -3.14159   0.00000   0.00000   0.00000   0.00000   3.14159
    D9        0.00000   0.00000   0.00000   0.00000   0.00000   0.00000
   D10       -3.14159   0.00000   0.00000   0.00000   0.00000   3.14159
   D11        3.14159   0.00000   0.00000   0.00000   0.00000   3.14159
   D12        0.00000   0.00000   0.00000   0.00000   0.00000   0.00000
   D13        0.00000   0.00000   0.00000   0.00000   0.00000   0.00000
   D14        3.14159   0.00000   0.00000   0.00000   0.00000   3.14159
   D15        3.14159   0.00000   0.00000   0.00000   0.00000   3.14159
   D16        0.00000   0.00000   0.00000   0.00000   0.00000   0.00000
   D17        0.00000   0.00000   0.00000   0.00000   0.00000   0.00000
   D18        3.14159   0.00000   0.00000   0.00000   0.00000   3.14159
   D19       -3.14159   0.00000   0.00000   0.00000   0.00000   3.14159
   D20        0.00000   0.00000   0.00000   0.00000   0.00000   0.00000
   D21        0.00000   0.00000   0.00000   0.00000   0.00000   0.00000
   D22        3.14159   0.00000   0.00000   0.00000   0.00000   3.14159
   D23        3.14159   0.00000   0.00000   0.00000   0.00000   3.14159
   D24        0.00000   0.00000   0.00000   0.00000   0.00000   0.00000
   D25        3.14159   0.00000   0.00000   0.00000   0.00000   3.14159
   D26        0.00000   0.00000   0.00000   0.00000   0.00000   0.00000
   D27        0.00000   0.00000   0.00000   0.00000   0.00000   0.00000
   D28        3.14159   0.00000   0.00000   0.00000   0.00000   3.14159
         Item               Value     Threshold  Converged?
 Maximum Force            0.042963     0.000450     NO 
 RMS     Force            0.012457     0.000300     NO 
 Maximum Displacement     0.555767     0.001800     NO 
 RMS     Displacement     0.145645     0.001200     NO 
 Predicted change in Energy=-1.844954D-02
 GradGradGradGradGradGradGradGradGradGradGradGradGradGradGradGradGradGrad

                          Input orientation:                          
 ---------------------------------------------------------------------
 Center     Atomic      Atomic             Coordinates (Angstroms)
 Number     Number       Type             X           Y           Z
 ---------------------------------------------------------------------
      1          6           0        0.861243   -3.887641    1.070042
      2          1           0        1.389237   -4.814017    0.886256
      3          1           0        0.696567   -3.598714    2.096894
      4          6           0        0.433679   -3.137471    0.038289
      5          1           0        0.637242   -3.494626   -0.963835
      6          6           0       -0.307076   -1.837799    0.127328
      7          1           0       -0.570573   -1.375489   -0.816037
      8          6           0       -0.670189   -1.200711    1.263544
      9          1           0       -0.438385   -1.607415    2.234344
     10          6           0       -1.396059    0.072844    1.242577
     11          1           0       -1.634032    0.490374    0.274063
     12          6           0       -1.764998    0.720157    2.371167
     13          1           0       -1.527393    0.303273    3.342467
     14          6           0       -2.494101    1.999382    2.343735
     15          1           0       -2.730746    2.414582    1.371296
     16          6           0       -2.861895    2.644685    3.464753
     17          1           0       -3.397388    3.584219    3.417097
     18          1           0       -2.628530    2.235241    4.439727
 ---------------------------------------------------------------------
                    Distance matrix (angstroms):
                    1          2          3          4          5
     1  C    0.000000
     2  H    1.082002   0.000000
     3  H    1.079362   1.849973   0.000000
     4  C    1.345393   2.107830   2.125961   0.000000
     5  H    2.083577   2.393559   3.063073   1.083167   0.000000
     6  C    2.540774   3.508750   2.826183   1.498597   2.197145
     7  H    3.452290   4.308380   3.877312   2.200676   2.443646
     8  C    3.098761   4.176070   2.883212   2.543779   3.454365
     9  H    2.871247   3.929356   2.296145   2.815000   3.866120
    10  C    4.561866   5.636156   4.311529   3.886434   4.661481
    11  H    5.101666   6.136082   5.047281   4.182377   4.750927
    12  C    5.460940   6.540737   4.978672   5.015754   5.887053
    13  H    5.332284   6.381721   4.660789   5.157724   6.136279
    14  C    6.894756   7.976652   6.448253   6.346198   7.136488
    15  H    7.260245   8.334397   6.959361   6.528077   7.191309
    16  C    7.890988   8.963985   7.315308   7.485640   8.339515
    17  H    8.914780   9.992363   8.372451   8.442425   9.250992
    18  H    7.811720   8.857859   7.111974   7.590508   8.526144
                    6          7          8          9         10
     6  C    0.000000
     7  H    1.083097   0.000000
     8  C    1.352302   2.089289   0.000000
     9  H    2.123637   3.062040   1.077773   0.000000
    10  C    2.465811   2.648959   1.466039   2.173479   0.000000
    11  H    2.683791   2.408466   2.183537   3.110143   1.081194
    12  C    3.701823   3.997080   2.472887   2.682576   1.352348
    13  H    4.050986   4.585510   2.705307   2.462642   2.116574
    14  C    4.941609   5.007382   3.838498   4.152941   2.475842
    15  H    5.050187   4.880104   4.162674   4.709165   2.698462
    16  C    6.144769   6.303739   4.943276   5.046550   3.701502
    17  H    7.054849   7.106969   5.913625   6.091606   4.589511
    18  H    6.369898   6.700419   5.072377   4.942313   4.051755
                   11         12         13         14         15
    11  H    0.000000
    12  C    2.113716   0.000000
    13  H    3.075951   1.083361   0.000000
    14  C    2.701918   1.472671   2.192892   0.000000
    15  H    2.471696   2.191686   3.129089   1.083526   0.000000
    16  C    4.040942   2.470410   2.697788   1.344757   2.110145
    17  H    4.749733   3.458543   3.777176   2.116540   2.449033
    18  H    4.624537   2.705570   2.479715   2.113500   3.075366
                   16         17         18
    16  C    0.000000
    17  H    1.082473   0.000000
    18  H    1.082902   1.859208   0.000000
 Stoichiometry    C8H10
 Framework group  CS[SG(C8H10)]
 Deg. of freedom    33
 Full point group                 CS      NOp   2
 Largest Abelian subgroup         CS      NOp   2
 Largest concise Abelian subgroup C1      NOp   1
                         Standard orientation:                         
 ---------------------------------------------------------------------
 Center     Atomic      Atomic             Coordinates (Angstroms)
 Number     Number       Type             X           Y           Z
 ---------------------------------------------------------------------
      1          6           0       -0.839982   -3.740154    0.000000
      2          1           0       -1.019096   -4.807228    0.000000
      3          1           0       -1.699117   -3.086771    0.000000
      4          6           0        0.419241   -3.266406    0.000000
      5          1           0        1.229072   -3.985727    0.000000
      6          6           0        0.829844   -1.825157    0.000000
      7          1           0        1.896096   -1.634879    0.000000
      8          6           0        0.000000   -0.757412    0.000000
      9          1           0       -1.070981   -0.878214    0.000000
     10          6           0        0.504481    0.619094    0.000000
     11          1           0        1.577424    0.752411    0.000000
     12          6           0       -0.314274    1.695423    0.000000
     13          1           0       -1.389601    1.563729    0.000000
     14          6           0        0.198467    3.075951    0.000000
     15          1           0        1.274227    3.205440    0.000000
     16          6           0       -0.613908    4.147595    0.000000
     17          1           0       -0.211361    5.152435    0.000000
     18          1           0       -1.689871    4.025197    0.000000
 ---------------------------------------------------------------------
 Rotational constants (GHZ):     10.8570337      0.6228090      0.5890202
 Standard basis: 6-31G(d) (6D, 7F)
 There are   108 symmetry adapted basis functions of A'  symmetry.
 There are    32 symmetry adapted basis functions of A"  symmetry.
 Integral buffers will be    131072 words long.
 Raffenetti 2 integral format.
 Two-electron integral symmetry is turned on.
   140 basis functions,   264 primitive gaussians,   140 cartesian basis functions
    29 alpha electrons       29 beta electrons
       nuclear repulsion energy       298.8710653556 Hartrees.
 NAtoms=   18 NActive=   18 NUniq=   18 SFac= 1.00D+00 NAtFMM=   60 NAOKFM=F Big=F
 One-electron integrals computed using PRISM.
 NBasis=   140 RedAO= T  NBF=   108    32
 NBsUse=   140 1.00D-06 NBFU=   108    32
 Initial guess read from the read-write file.
 B after Tr=     0.000000    0.000000    0.000000
         Rot=    1.000000    0.000000    0.000000    0.000000 Ang=   0.00 deg.
 Initial guess orbital symmetries:
       Occupied  (A') (A') (A') (A') (A') (A') (A') (A') (A') (A')
                 (A') (A') (A') (A') (A') (A') (A') (A') (A') (A')
                 (A') (A') (A') (A') (A') (A") (A") (A") (A")
       Virtual   (A") (A") (A") (A") (A') (A') (A') (A') (A') (A')
                 (A') (A') (A') (A') (A') (A') (A') (A') (A') (A')
                 (A') (A') (A') (A") (A") (A') (A') (A") (A') (A')
                 (A") (A") (A') (A') (A") (A') (A') (A") (A") (A')
                 (A') (A') (A') (A') (A') (A') (A') (A') (A') (A')
                 (A') (A') (A') (A') (A') (A') (A') (A') (A') (A')
                 (A') (A") (A") (A") (A') (A") (A") (A') (A") (A")
                 (A") (A") (A') (A') (A') (A') (A') (A') (A") (A')
                 (A') (A") (A') (A') (A") (A') (A') (A') (A') (A")
                 (A') (A") (A") (A") (A') (A') (A') (A') (A') (A')
                 (A') (A') (A') (A') (A') (A') (A') (A') (A') (A')
                 (A')
 Harris functional with IExCor=  402 diagonalized for initial guess.
 ExpMin= 1.61D-01 ExpMax= 3.05D+03 ExpMxC= 4.57D+02 IAcc=1 IRadAn=         1 AccDes= 0.00D+00
 HarFok:  IExCor=  402 AccDes= 0.00D+00 IRadAn=         1 IDoV= 1
 ScaDFX=  1.000000  1.000000  1.000000  1.000000
 FoFCou: FMM=F IPFlag=           0 FMFlag=      100000 FMFlg1=           0
         NFxFlg=           0 DoJE=T BraDBF=F KetDBF=T FulRan=T
         Omega=  0.000000  0.000000  1.000000  0.000000  0.000000 ICntrl=     500 IOpCl=  0
         NMat0=    1 NMatS0=    1 NMatT0=    0 NMatD0=    1 NMtDS0=    0 NMtDT0=    0
         I1Cent=           4 NGrid=           0.
 Petite list used in FoFCou.
 Requested convergence on RMS density matrix=1.00D-08 within 128 cycles.
 Requested convergence on MAX density matrix=1.00D-06.
 Requested convergence on             energy=1.00D-06.
 No special actions if energy rises.
 Integral accuracy reduced to 1.0D-05 until final iterations.
 Initial convergence to 1.0D-05 achieved.  Increase integral accuracy.
 SCF Done:  E(RB3LYP) =  -310.797401844     A.U. after   14 cycles
             Convg  =    0.3652D-08             -V/T =  2.0103
 Calling FoFJK, ICntrl=      2127 FMM=F ISym2X=1 I1Cent= 0 IOpClX= 0 NMat=1 NMatS=1 NMatT=0.
 ***** Axes restored to original set *****
 -------------------------------------------------------------------
 Center     Atomic                   Forces (Hartrees/Bohr)
 Number     Number              X              Y              Z
 -------------------------------------------------------------------
      1        6          -0.002293371    0.004023769   -0.009632043
      2        1           0.001370018   -0.002403725    0.001530928
      3        1           0.000041250   -0.000072373    0.005293057
      4        6          -0.009456444    0.016591534    0.008650514
      5        1          -0.000145876    0.000255943   -0.004308914
      6        6           0.012579152   -0.022070393    0.004405110
      7        1          -0.000408706    0.000717084   -0.004109244
      8        6          -0.009752348    0.017110705   -0.013809233
      9        1           0.002006091   -0.003519729    0.006397114
     10        6           0.010890203   -0.019107096    0.012231510
     11        1          -0.001385735    0.002431301   -0.004798479
     12        6          -0.010525450    0.018467129   -0.012304704
     13        1           0.000803728   -0.001410157    0.003502169
     14        6           0.008119380   -0.014245626    0.013019621
     15        1          -0.000553517    0.000971158   -0.003633319
     16        6           0.000250858   -0.000440136   -0.008287873
     17        1          -0.001155613    0.002027548    0.002346562
     18        1          -0.000383618    0.000673065    0.003507225
 -------------------------------------------------------------------
 Cartesian Forces:  Max     0.022070393 RMS     0.008340612

 GradGradGradGradGradGradGradGradGradGradGradGradGradGradGradGradGradGrad
 Berny optimization.
 Using GEDIIS/GDIIS optimizer.
 Internal  Forces:  Max     0.021226463 RMS     0.004198249
 Search for a local minimum.
 Step number   2 out of a maximum of   79
 All quantities printed in internal units (Hartrees-Bohrs-Radians)
 Mixed Optimization -- RFO/linear search
 Update second derivatives using D2CorX and points    1    2
 DE= -1.86D-02 DEPred=-1.84D-02 R= 1.01D+00
 SS=  1.41D+00  RLast= 3.00D-01 DXNew= 5.0454D-01 9.0000D-01
 Trust test= 1.01D+00 RLast= 3.00D-01 DXMaxT set to 5.05D-01
 ITU=  1  0
 Use linear search instead of GDIIS.
     Eigenvalues ---    0.00310   0.00310   0.00499   0.01514   0.01518
     Eigenvalues ---    0.01529   0.01531   0.01622   0.01642   0.02683
     Eigenvalues ---    0.02683   0.02683   0.02683   0.02683   0.02683
     Eigenvalues ---    0.15545   0.16000   0.16000   0.16000   0.16000
     Eigenvalues ---    0.16000   0.16000   0.16000   0.16000   0.16340
     Eigenvalues ---    0.19520   0.22000   0.22000   0.22000   0.22000
     Eigenvalues ---    0.24932   0.25619   0.29719   0.31737   0.37317
     Eigenvalues ---    0.37600   0.37600   0.37600   0.37600   0.37645
     Eigenvalues ---    0.37719   0.38235   0.39104   0.39642   0.53844
     Eigenvalues ---    0.53947   0.53947   0.54447
 RFO step:  Lambda=-3.53888289D-03 EMin= 3.09906417D-03
 Quartic linear search produced a step of  0.38483.
 Iteration  1 RMS(Cart)=  0.02687258 RMS(Int)=  0.00028083
 Iteration  2 RMS(Cart)=  0.00065373 RMS(Int)=  0.00000005
 Iteration  3 RMS(Cart)=  0.00000006 RMS(Int)=  0.00000001
 ClnCor:  largest displacement from symmetrization is 4.56D-08 for atom    17.
 Variable       Old X    -DE/DX   Delta X   Delta X   Delta X     New X
                                 (Linear)    (Quad)   (Total)
    R1        2.04469   0.00247   0.01152  -0.00070   0.01082   2.05550
    R2        2.03970   0.00501   0.00892   0.01078   0.01970   2.05940
    R3        2.54242  -0.00330  -0.00707  -0.00248  -0.00955   2.53287
    R4        2.04689   0.00387   0.01169   0.00432   0.01600   2.06289
    R5        2.83194  -0.02123  -0.02609  -0.07803  -0.10413   2.72781
    R6        2.04676   0.00398   0.01164   0.00476   0.01640   2.06315
    R7        2.55548   0.00031  -0.00205   0.00249   0.00045   2.55593
    R8        2.03669   0.00752   0.01722   0.01179   0.02901   2.06570
    R9        2.77041  -0.01232  -0.03936  -0.02238  -0.06174   2.70867
   R10        2.04316   0.00554   0.01971   0.00279   0.02251   2.06567
   R11        2.55557   0.00229  -0.00201   0.00751   0.00550   2.56106
   R12        2.04726   0.00386   0.01183   0.00414   0.01597   2.06322
   R13        2.78295  -0.01280  -0.04494  -0.02248  -0.06742   2.71552
   R14        2.04757   0.00375   0.01195   0.00366   0.01561   2.06317
   R15        2.54122  -0.00059  -0.00753   0.00479  -0.00274   2.53848
   R16        2.04558   0.00223   0.01186  -0.00186   0.01001   2.05558
   R17        2.04639   0.00282   0.01149   0.00063   0.01213   2.05852
    A1        2.05469  -0.00251  -0.01314  -0.01006  -0.02320   2.03148
    A2        2.09694   0.00154  -0.00094   0.01379   0.01285   2.10979
    A3        2.13156   0.00098   0.01408  -0.00372   0.01035   2.14191
    A4        2.05547   0.00112  -0.01520   0.02418   0.00898   2.06445
    A5        2.20818   0.00167   0.04187  -0.02509   0.01678   2.22495
    A6        2.01953  -0.00279  -0.02666   0.00091  -0.02576   1.99378
    A7        2.02493  -0.00211  -0.02459   0.00473  -0.01986   2.00508
    A8        2.20337   0.00156   0.04002  -0.02418   0.01584   2.21921
    A9        2.05488   0.00055  -0.01543   0.01945   0.00402   2.05890
   A10        2.11915  -0.00354   0.00780  -0.03058  -0.02277   2.09638
   A11        2.12962   0.00530   0.00827   0.02583   0.03410   2.16372
   A12        2.03441  -0.00176  -0.01607   0.00475  -0.01132   2.02309
   A13        2.04571  -0.00238  -0.01172  -0.00392  -0.01564   2.03007
   A14        2.13999   0.00552   0.01226   0.02382   0.03608   2.17608
   A15        2.09748  -0.00314  -0.00054  -0.01991  -0.02044   2.07704
   A16        2.09924  -0.00286   0.00164  -0.01892  -0.01728   2.08197
   A17        2.13567   0.00592   0.01396   0.02482   0.03878   2.17444
   A18        2.04828  -0.00306  -0.01560  -0.00590  -0.02150   2.02677
   A19        2.04621  -0.00364  -0.01640  -0.01003  -0.02643   2.01978
   A20        2.13733   0.00606   0.01460   0.02517   0.03977   2.17710
   A21        2.09965  -0.00242   0.00180  -0.01514  -0.01334   2.08630
   A22        2.11192   0.00182   0.00482   0.01128   0.01611   2.12803
   A23        2.10617   0.00137   0.00431   0.00789   0.01220   2.11837
   A24        2.06510  -0.00319  -0.00913  -0.01917  -0.02830   2.03679
    D1        0.00000   0.00000   0.00000   0.00000   0.00000   0.00000
    D2        3.14159   0.00000   0.00000   0.00000   0.00000   3.14159
    D3        3.14159   0.00000   0.00000   0.00000   0.00000   3.14159
    D4        0.00000   0.00000   0.00000   0.00000   0.00000   0.00000
    D5        3.14159   0.00000   0.00000   0.00000   0.00000   3.14159
    D6        0.00000   0.00000   0.00000   0.00000   0.00000   0.00000
    D7        0.00000   0.00000   0.00000   0.00000   0.00000   0.00000
    D8        3.14159   0.00000   0.00000   0.00000   0.00000   3.14159
    D9        0.00000   0.00000   0.00000   0.00000   0.00000   0.00000
   D10        3.14159   0.00000   0.00000   0.00000   0.00000  -3.14159
   D11        3.14159   0.00000   0.00000   0.00000   0.00000   3.14159
   D12        0.00000   0.00000   0.00000   0.00000   0.00000   0.00000
   D13        0.00000   0.00000   0.00000   0.00000   0.00000   0.00000
   D14        3.14159   0.00000   0.00000   0.00000   0.00000   3.14159
   D15        3.14159   0.00000   0.00000   0.00000   0.00000   3.14159
   D16        0.00000   0.00000   0.00000   0.00000   0.00000   0.00000
   D17        0.00000   0.00000   0.00000   0.00000   0.00000   0.00000
   D18        3.14159   0.00000   0.00000   0.00000   0.00000   3.14159
   D19        3.14159   0.00000   0.00000   0.00000   0.00000   3.14159
   D20        0.00000   0.00000   0.00000   0.00000   0.00000   0.00000
   D21        0.00000   0.00000   0.00000   0.00000   0.00000   0.00000
   D22        3.14159   0.00000   0.00000   0.00000   0.00000   3.14159
   D23        3.14159   0.00000   0.00000   0.00000   0.00000   3.14159
   D24        0.00000   0.00000   0.00000   0.00000   0.00000   0.00000
   D25       -3.14159   0.00000   0.00000   0.00000   0.00000   3.14159
   D26        0.00000   0.00000   0.00000   0.00000   0.00000   0.00000
   D27        0.00000   0.00000   0.00000   0.00000   0.00000   0.00000
   D28        3.14159   0.00000   0.00000   0.00000   0.00000   3.14159
         Item               Value     Threshold  Converged?
 Maximum Force            0.021226     0.000450     NO 
 RMS     Force            0.004198     0.000300     NO 
 Maximum Displacement     0.090775     0.001800     NO 
 RMS     Displacement     0.027032     0.001200     NO 
 Predicted change in Energy=-2.942758D-03
 GradGradGradGradGradGradGradGradGradGradGradGradGradGradGradGradGradGrad

                          Input orientation:                          
 ---------------------------------------------------------------------
 Center     Atomic      Atomic             Coordinates (Angstroms)
 Number     Number       Type             X           Y           Z
 ---------------------------------------------------------------------
      1          6           0        0.846960   -3.862581    1.068704
      2          1           0        1.377853   -4.794044    0.885195
      3          1           0        0.692046   -3.590780    2.112619
      4          6           0        0.415086   -3.104848    0.050946
      5          1           0        0.609864   -3.446590   -0.967356
      6          6           0       -0.298640   -1.852600    0.129371
      7          1           0       -0.552418   -1.407342   -0.834636
      8          6           0       -0.673516   -1.194873    1.250186
      9          1           0       -0.437513   -1.608944    2.233938
     10          6           0       -1.383282    0.050426    1.248553
     11          1           0       -1.622673    0.470444    0.268169
     12          6           0       -1.765754    0.721482    2.362160
     13          1           0       -1.529035    0.306155    3.343750
     14          6           0       -2.477312    1.969927    2.358179
     15          1           0       -2.710619    2.379268    1.373292
     16          6           0       -2.857864    2.637613    3.459926
     17          1           0       -3.395775    3.581389    3.403554
     18          1           0       -2.640802    2.256774    4.457154
 ---------------------------------------------------------------------
                    Distance matrix (angstroms):
                    1          2          3          4          5
     1  C    0.000000
     2  H    1.087725   0.000000
     3  H    1.089786   1.850606   0.000000
     4  C    1.340337   2.115721   2.136196   0.000000
     5  H    2.091603   2.416068   3.084444   1.091635   0.000000
     6  C    2.496952   3.469004   2.817091   1.443496   2.137521
     7  H    3.407222   4.260695   3.873295   2.145192   2.350968
     8  C    3.075946   4.158769   2.889450   2.504243   3.410981
     9  H    2.843681   3.906344   2.284359   2.780307   3.836956
    10  C    4.507543   5.587914   4.279250   3.824153   4.594781
    11  H    5.051242   6.090871   5.025283   4.120966   4.674816
    12  C    5.432581   6.518030   4.969774   4.973789   5.839698
    13  H    5.310324   6.364473   4.651342   5.124168   6.102756
    14  C    6.836057   7.923590   6.405201   6.280337   7.066010
    15  H    7.190953   8.271048   6.911310   6.449353   7.102455
    16  C    7.854692   8.933088   7.294518   7.437016   8.285138
    17  H    8.880597   9.963811   8.355645   8.394546   9.194699
    18  H    7.816174   8.866933   7.127314   7.582882   8.515897
                    6          7          8          9         10
     6  C    0.000000
     7  H    1.091773   0.000000
     8  C    1.352539   2.099117   0.000000
     9  H    2.123172   3.077336   1.093124   0.000000
    10  C    2.459782   2.674902   1.433367   2.149180   0.000000
    11  H    2.677473   2.426459   2.153727   3.097210   1.093104
    12  C    3.709942   4.027851   2.470200   2.685433   1.355257
    13  H    4.062798   4.620472   2.714408   2.467936   2.115772
    14  C    4.932130   5.030431   3.807531   4.121230   2.472378
    15  H    5.027294   4.885815   4.115754   4.670498   2.683446
    16  C    6.148515   6.334036   4.933790   5.039285   3.709192
    17  H    7.059798   7.136832   5.904267   6.087600   4.600201
    18  H    6.411114   6.766841   5.105754   4.974027   4.091998
                   11         12         13         14         15
    11  H    0.000000
    12  C    2.113834   0.000000
    13  H    3.081389   1.091811   0.000000
    14  C    2.710535   1.436992   2.153768   0.000000
    15  H    2.459376   2.149159   3.094615   1.091785   0.000000
    16  C    4.050881   2.463606   2.686072   1.343306   2.107716
    17  H    4.759465   3.452613   3.770338   2.129129   2.456928
    18  H    4.666386   2.740771   2.506114   2.124783   3.087083
                   16         17         18
    16  C    0.000000
    17  H    1.087767   0.000000
    18  H    1.089320   1.853284   0.000000
 Stoichiometry    C8H10
 Framework group  CS[SG(C8H10)]
 Deg. of freedom    33
 Full point group                 CS      NOp   2
 Largest Abelian subgroup         CS      NOp   2
 Largest concise Abelian subgroup C1      NOp   1
                         Standard orientation:                         
 ---------------------------------------------------------------------
 Center     Atomic      Atomic             Coordinates (Angstroms)
 Number     Number       Type             X           Y           Z
 ---------------------------------------------------------------------
      1          6           0       -0.905164   -3.694753    0.000000
      2          1           0       -1.108677   -4.763270    0.000000
      3          1           0       -1.773451   -3.036186    0.000000
      4          6           0        0.353551   -3.234164    0.000000
      5          1           0        1.169658   -3.959172    0.000000
      6          6           0        0.784780   -1.856586    0.000000
      7          1           0        1.867212   -1.714073    0.000000
      8          6           0        0.000000   -0.755004    0.000000
      9          1           0       -1.088357   -0.856979    0.000000
     10          6           0        0.503419    0.587051    0.000000
     11          1           0        1.591018    0.696616    0.000000
     12          6           0       -0.269237    1.700479    0.000000
     13          1           0       -1.356076    1.596393    0.000000
     14          6           0        0.237648    3.045103    0.000000
     15          1           0        1.325162    3.141581    0.000000
     16          6           0       -0.525257    4.150746    0.000000
     17          1           0       -0.092087    5.148544    0.000000
     18          1           0       -1.612843    4.089318    0.000000
 ---------------------------------------------------------------------
 Rotational constants (GHZ):     11.0442836      0.6295478      0.5955975
 Standard basis: 6-31G(d) (6D, 7F)
 There are   108 symmetry adapted basis functions of A'  symmetry.
 There are    32 symmetry adapted basis functions of A"  symmetry.
 Integral buffers will be    131072 words long.
 Raffenetti 2 integral format.
 Two-electron integral symmetry is turned on.
   140 basis functions,   264 primitive gaussians,   140 cartesian basis functions
    29 alpha electrons       29 beta electrons
       nuclear repulsion energy       300.6713508883 Hartrees.
 NAtoms=   18 NActive=   18 NUniq=   18 SFac= 1.00D+00 NAtFMM=   60 NAOKFM=F Big=F
 One-electron integrals computed using PRISM.
 NBasis=   140 RedAO= T  NBF=   108    32
 NBsUse=   140 1.00D-06 NBFU=   108    32
 Initial guess read from the read-write file.
 B after Tr=     0.000000    0.000000    0.000000
         Rot=    1.000000    0.000000    0.000000    0.000000 Ang=   0.00 deg.
 Initial guess orbital symmetries:
       Occupied  (A') (A') (A') (A') (A') (A') (A') (A') (A') (A')
                 (A') (A') (A') (A') (A') (A') (A') (A') (A') (A')
                 (A') (A') (A') (A') (A') (A") (A") (A") (A")
       Virtual   (A") (A") (A") (A') (A") (A') (A') (A') (A') (A')
                 (A') (A') (A') (A') (A') (A') (A') (A') (A') (A')
                 (A') (A') (A') (A") (A") (A') (A") (A') (A') (A")
                 (A') (A") (A') (A') (A") (A') (A') (A") (A") (A')
                 (A') (A') (A') (A') (A') (A') (A') (A') (A') (A')
                 (A') (A') (A') (A') (A') (A') (A') (A') (A') (A')
                 (A") (A') (A") (A") (A") (A') (A") (A') (A") (A")
                 (A") (A") (A') (A') (A') (A') (A') (A') (A") (A')
                 (A') (A") (A') (A') (A") (A') (A') (A') (A') (A")
                 (A') (A") (A") (A") (A') (A') (A') (A') (A') (A')
                 (A') (A') (A') (A') (A') (A') (A') (A') (A') (A')
                 (A')
 Harris functional with IExCor=  402 diagonalized for initial guess.
 ExpMin= 1.61D-01 ExpMax= 3.05D+03 ExpMxC= 4.57D+02 IAcc=1 IRadAn=         1 AccDes= 0.00D+00
 HarFok:  IExCor=  402 AccDes= 0.00D+00 IRadAn=         1 IDoV= 1
 ScaDFX=  1.000000  1.000000  1.000000  1.000000
 FoFCou: FMM=F IPFlag=           0 FMFlag=      100000 FMFlg1=           0
         NFxFlg=           0 DoJE=T BraDBF=F KetDBF=T FulRan=T
         Omega=  0.000000  0.000000  1.000000  0.000000  0.000000 ICntrl=     500 IOpCl=  0
         NMat0=    1 NMatS0=    1 NMatT0=    0 NMatD0=    1 NMtDS0=    0 NMtDT0=    0
         I1Cent=           4 NGrid=           0.
 Petite list used in FoFCou.
 Requested convergence on RMS density matrix=1.00D-08 within 128 cycles.
 Requested convergence on MAX density matrix=1.00D-06.
 Requested convergence on             energy=1.00D-06.
 No special actions if energy rises.
 Integral accuracy reduced to 1.0D-05 until final iterations.
 Initial convergence to 1.0D-05 achieved.  Increase integral accuracy.
 SCF Done:  E(RB3LYP) =  -310.799460334     A.U. after   13 cycles
             Convg  =    0.3771D-08             -V/T =  2.0100
 Calling FoFJK, ICntrl=      2127 FMM=F ISym2X=1 I1Cent= 0 IOpClX= 0 NMat=1 NMatS=1 NMatT=0.
 ***** Axes restored to original set *****
 -------------------------------------------------------------------
 Center     Atomic                   Forces (Hartrees/Bohr)
 Number     Number              X              Y              Z
 -------------------------------------------------------------------
      1        6           0.002668428   -0.004681815    0.003495746
      2        1          -0.000642719    0.001127664    0.000737599
      3        1           0.000313679   -0.000550356   -0.001905824
      4        6           0.003218481   -0.005646893   -0.004524768
      5        1           0.000637432   -0.001118389    0.001784150
      6        6          -0.003665845    0.006431804   -0.003388189
      7        1          -0.000572296    0.001004105    0.001756205
      8        6           0.000402076   -0.000705450    0.005277759
      9        1           0.000183352   -0.000321695   -0.002296503
     10        6          -0.001701916    0.002986048   -0.003201538
     11        1          -0.000263701    0.000462669    0.001482262
     12        6           0.002608522   -0.004576709    0.003535290
     13        1           0.000598997   -0.001050953   -0.000959912
     14        6          -0.002784540    0.004885536   -0.003856775
     15        1          -0.000570205    0.001000436    0.001099299
     16        6          -0.000938362    0.001646376    0.001868061
     17        1           0.000790896   -0.001387644   -0.000016684
     18        1          -0.000282280    0.000495266   -0.000886177
 -------------------------------------------------------------------
 Cartesian Forces:  Max     0.006431804 RMS     0.002533715

 GradGradGradGradGradGradGradGradGradGradGradGradGradGradGradGradGradGrad
 Berny optimization.
 Using GEDIIS/GDIIS optimizer.
 Internal  Forces:  Max     0.012514271 RMS     0.002218032
 Search for a local minimum.
 Step number   3 out of a maximum of   79
 All quantities printed in internal units (Hartrees-Bohrs-Radians)
 Mixed Optimization -- RFO/linear search
 Update second derivatives using D2CorX and points    1    2    3
 DE= -2.06D-03 DEPred=-2.94D-03 R= 7.00D-01
 SS=  1.41D+00  RLast= 1.86D-01 DXNew= 8.4853D-01 5.5849D-01
 Trust test= 7.00D-01 RLast= 1.86D-01 DXMaxT set to 5.58D-01
 ITU=  1  1  0
 Use linear search instead of GDIIS.
     Eigenvalues ---    0.00310   0.00310   0.00499   0.01528   0.01531
     Eigenvalues ---    0.01538   0.01538   0.01618   0.01633   0.02683
     Eigenvalues ---    0.02683   0.02683   0.02683   0.02683   0.02683
     Eigenvalues ---    0.14911   0.16000   0.16000   0.16000   0.16000
     Eigenvalues ---    0.16000   0.16000   0.16000   0.16141   0.16434
     Eigenvalues ---    0.19452   0.22000   0.22000   0.22000   0.22016
     Eigenvalues ---    0.24663   0.29679   0.30587   0.33907   0.37004
     Eigenvalues ---    0.37600   0.37600   0.37600   0.37615   0.37719
     Eigenvalues ---    0.37792   0.38069   0.38942   0.39460   0.53853
     Eigenvalues ---    0.53947   0.54184   0.55436
 RFO step:  Lambda=-2.84121003D-04 EMin= 3.09906417D-03
 Quartic linear search produced a step of -0.26458.
 Iteration  1 RMS(Cart)=  0.01820991 RMS(Int)=  0.00002117
 Iteration  2 RMS(Cart)=  0.00003324 RMS(Int)=  0.00000000
 Iteration  3 RMS(Cart)=  0.00000001 RMS(Int)=  0.00000000
 ClnCor:  largest displacement from symmetrization is 3.34D-08 for atom     9.
 Variable       Old X    -DE/DX   Delta X   Delta X   Delta X     New X
                                 (Linear)    (Quad)   (Total)
    R1        2.05550  -0.00140  -0.00286  -0.00034  -0.00320   2.05230
    R2        2.05940  -0.00201  -0.00521   0.00069  -0.00452   2.05488
    R3        2.53287   0.00484   0.00253   0.00446   0.00699   2.53986
    R4        2.06289  -0.00120  -0.00423   0.00132  -0.00292   2.05998
    R5        2.72781   0.01251   0.02755   0.00650   0.03405   2.76186
    R6        2.06315  -0.00101  -0.00434   0.00179  -0.00255   2.06061
    R7        2.55593   0.00391  -0.00012   0.00550   0.00538   2.56131
    R8        2.06570  -0.00191  -0.00768   0.00315  -0.00453   2.06117
    R9        2.70867   0.00513   0.01634  -0.00200   0.01433   2.72300
   R10        2.06567  -0.00109  -0.00595   0.00303  -0.00292   2.06274
   R11        2.56106   0.00131  -0.00145   0.00315   0.00170   2.56276
   R12        2.06322  -0.00033  -0.00422   0.00301  -0.00122   2.06201
   R13        2.71552   0.00765   0.01784   0.00361   0.02145   2.73697
   R14        2.06317  -0.00050  -0.00413   0.00260  -0.00153   2.06164
   R15        2.53848   0.00129   0.00073   0.00126   0.00198   2.54046
   R16        2.05558  -0.00159  -0.00265  -0.00092  -0.00356   2.05202
   R17        2.05852  -0.00104  -0.00321   0.00069  -0.00252   2.05600
    A1        2.03148  -0.00039   0.00614  -0.00760  -0.00146   2.03003
    A2        2.10979   0.00065  -0.00340   0.00639   0.00299   2.11278
    A3        2.14191  -0.00027  -0.00274   0.00121  -0.00153   2.14038
    A4        2.06445  -0.00271  -0.00238  -0.00874  -0.01112   2.05333
    A5        2.22495   0.00162  -0.00444   0.00885   0.00441   2.22937
    A6        1.99378   0.00109   0.00681  -0.00010   0.00671   2.00049
    A7        2.00508   0.00133   0.00525   0.00220   0.00746   2.01253
    A8        2.21921   0.00115  -0.00419   0.00706   0.00287   2.22208
    A9        2.05890  -0.00248  -0.00106  -0.00926  -0.01033   2.04857
   A10        2.09638  -0.00152   0.00603  -0.01280  -0.00677   2.08961
   A11        2.16372   0.00028  -0.00902   0.00943   0.00040   2.16412
   A12        2.02309   0.00124   0.00300   0.00337   0.00637   2.02946
   A13        2.03007   0.00130   0.00414   0.00210   0.00624   2.03631
   A14        2.17608  -0.00025  -0.00955   0.00805  -0.00149   2.17458
   A15        2.07704  -0.00104   0.00541  -0.01016  -0.00475   2.07229
   A16        2.08197  -0.00120   0.00457  -0.01038  -0.00581   2.07616
   A17        2.17444  -0.00070  -0.01026   0.00719  -0.00307   2.17138
   A18        2.02677   0.00191   0.00569   0.00319   0.00888   2.03565
   A19        2.01978   0.00177   0.00699   0.00146   0.00846   2.02823
   A20        2.17710  -0.00042  -0.01052   0.00839  -0.00213   2.17497
   A21        2.08630  -0.00135   0.00353  -0.00986  -0.00633   2.07998
   A22        2.12803  -0.00025  -0.00426   0.00298  -0.00128   2.12675
   A23        2.11837   0.00029  -0.00323   0.00446   0.00123   2.11960
   A24        2.03679  -0.00005   0.00749  -0.00744   0.00005   2.03684
    D1        0.00000   0.00000   0.00000   0.00000   0.00000   0.00000
    D2        3.14159   0.00000   0.00000   0.00000   0.00000   3.14159
    D3        3.14159   0.00000   0.00000   0.00000   0.00000   3.14159
    D4        0.00000   0.00000   0.00000   0.00000   0.00000   0.00000
    D5        3.14159   0.00000   0.00000   0.00000   0.00000   3.14159
    D6        0.00000   0.00000   0.00000   0.00000   0.00000   0.00000
    D7        0.00000   0.00000   0.00000   0.00000   0.00000   0.00000
    D8        3.14159   0.00000   0.00000   0.00000   0.00000   3.14159
    D9        0.00000   0.00000   0.00000   0.00000   0.00000   0.00000
   D10        3.14159   0.00000   0.00000   0.00000   0.00000   3.14159
   D11        3.14159   0.00000   0.00000   0.00000   0.00000   3.14159
   D12        0.00000   0.00000   0.00000   0.00000   0.00000   0.00000
   D13        0.00000   0.00000   0.00000   0.00000   0.00000   0.00000
   D14        3.14159   0.00000   0.00000   0.00000   0.00000   3.14159
   D15        3.14159   0.00000   0.00000   0.00000   0.00000   3.14159
   D16        0.00000   0.00000   0.00000   0.00000   0.00000   0.00000
   D17        0.00000   0.00000   0.00000   0.00000   0.00000   0.00000
   D18       -3.14159   0.00000   0.00000   0.00000   0.00000   3.14159
   D19        3.14159   0.00000   0.00000   0.00000   0.00000   3.14159
   D20        0.00000   0.00000   0.00000   0.00000   0.00000   0.00000
   D21        0.00000   0.00000   0.00000   0.00000   0.00000   0.00000
   D22        3.14159   0.00000   0.00000   0.00000   0.00000   3.14159
   D23        3.14159   0.00000   0.00000   0.00000   0.00000   3.14159
   D24        0.00000   0.00000   0.00000   0.00000   0.00000   0.00000
   D25        3.14159   0.00000   0.00000   0.00000   0.00000   3.14159
   D26        0.00000   0.00000   0.00000   0.00000   0.00000   0.00000
   D27        0.00000   0.00000   0.00000   0.00000   0.00000   0.00000
   D28       -3.14159   0.00000   0.00000   0.00000   0.00000   3.14159
         Item               Value     Threshold  Converged?
 Maximum Force            0.012514     0.000450     NO 
 RMS     Force            0.002218     0.000300     NO 
 Maximum Displacement     0.056982     0.001800     NO 
 RMS     Displacement     0.018209     0.001200     NO 
 Predicted change in Energy=-4.821228D-04
 GradGradGradGradGradGradGradGradGradGradGradGradGradGradGradGradGradGrad

                          Input orientation:                          
 ---------------------------------------------------------------------
 Center     Atomic      Atomic             Coordinates (Angstroms)
 Number     Number       Type             X           Y           Z
 ---------------------------------------------------------------------
      1          6           0        0.861044   -3.887290    1.060981
      2          1           0        1.390753   -4.816677    0.873592
      3          1           0        0.709232   -3.620934    2.104261
      4          6           0        0.424508   -3.121379    0.046460
      5          1           0        0.621142   -3.466378   -0.968731
      6          6           0       -0.298027   -1.853677    0.129473
      7          1           0       -0.556213   -1.400683   -0.828214
      8          6           0       -0.673911   -1.194181    1.252347
      9          1           0       -0.435330   -1.612775    2.230888
     10          6           0       -1.387432    0.057708    1.250719
     11          1           0       -1.629511    0.482442    0.274760
     12          6           0       -1.769329    0.727754    2.366226
     13          1           0       -1.529204    0.306451    3.343717
     14          6           0       -2.486504    1.986054    2.359947
     15          1           0       -2.722990    2.400973    1.379059
     16          6           0       -2.867044    2.653720    3.462990
     17          1           0       -3.404002    3.595825    3.405939
     18          1           0       -2.650576    2.273922    4.459289
 ---------------------------------------------------------------------
                    Distance matrix (angstroms):
                    1          2          3          4          5
     1  C    0.000000
     2  H    1.086033   0.000000
     3  H    1.087394   1.846298   0.000000
     4  C    1.344038   2.119390   2.136626   0.000000
     5  H    2.086732   2.410345   3.078137   1.090092   0.000000
     6  C    2.519273   3.490711   2.835058   1.461512   2.156787
     7  H    3.429416   4.284371   3.889766   2.165101   2.381807
     8  C    3.105728   4.186738   2.920269   2.524833   3.431214
     9  H    2.867523   3.929608   2.314899   2.790508   3.845717
    10  C    4.544740   5.623182   4.319368   3.852267   4.623798
    11  H    5.090733   6.128724   5.065026   4.154352   4.712206
    12  C    5.470024   6.553991   5.012283   5.001006   5.867455
    13  H    5.339629   6.393286   4.687345   5.141879   6.120084
    14  C    6.884008   7.969914   6.458825   6.317602   7.103983
    15  H    7.244911   8.323032   6.969178   6.494532   7.149905
    16  C    7.902728   8.980014   7.348958   7.473873   8.322451
    17  H    8.926727  10.008629   8.408012   8.429972   9.231155
    18  H    7.863874   8.914380   7.182186   7.618299   8.550940
                    6          7          8          9         10
     6  C    0.000000
     7  H    1.090426   0.000000
     8  C    1.355385   2.094095   0.000000
[...]
 15,0.0771826,0.0581321,0.0293104,0.0581321,0.0083213,-0.0514257,0.0506
 319,-0.0888348,-0.1305861,-0.1048258,-0.0400775,0.0846475,-0.0400775,-
 0.0573513,-0.1485159,0.1994024,-0.3498558,0.0312034,0.0800333,0.056327
 4,-0.0438461,0.0563274,0.0133098,0.0769289,-0.0354592,0.0622139,-0.079
 9346,-0.0375759,-0.0843988,-0.0333904,-0.0843988,0.0624,0.0585842,0.02
 98798,-0.0524247,0.0071259,0.074222,0.0557395,-0.0180689,0.0557395,0.0
 081949,0.0317022,-0.0424948,0.0745581,-0.0682758,-0.0565152,-0.0978147
 ,0.0116061,-0.0978147,0.0593527,-0.0203632,0.0593808,-0.1041848,0.1226
 671,0.075848,0.0617364,-0.0227121,0.0617364,0.0027172,0.0398489,-0.046
 94,0.0823572,-0.0750767,-0.0959239,-0.0261037,0.0277319,-0.0261037,-0.
 0650024,-0.0486563,-0.0378155,0.0663481,0.1219782,0.0769995,0.0621884,
 -0.024837,0.0621884,0.0033333,0.043577,-0.0363831,0.063835,-0.075444,0
 .029421,-0.1796931,-0.0619691,-0.1796931,0.2422793,0.1087262,0.1068393
 ,-0.1874518,0.0259323,0.0753624,0.0575214,-0.0087239,0.0575214,0.00722
 45,0.0153063,-0.0557502,0.0978149,-0.0833686,-0.2913714,-0.0387653,0.1
 078843,-0.0387653,-0.2454514,-0.1892854,0.0405726,-0.0711855,0.0411468
 ,0.0748843,0.1080313,0.0076444,0.1080313,-0.0530859,-0.0134122,-0.0023
 773,0.004171,0.0316761,0.106318,0.0571341,-0.0429029,0.0571341,0.03863
 89,0.075274,-0.0194782,0.0341749,-0.0690567\Polar=74.0387459,-78.82336
 64,167.4101926,-29.0697651,51.003529,109.9644848\PG=CS [SG(C8H10)]\NIm
 ag=1\\0.25438022,-0.27073492,0.57508349,0.04433897,-0.07779367,0.75220
 157,-0.10439631,0.13172300,0.02544700,0.10282284,0.13172300,-0.2604308
 5,-0.04464731,-0.14401587,0.27341909,0.02765519,-0.04852163,-0.0679107
 9,-0.02645882,0.04642257,0.06437482,-0.04719387,0.02172849,0.03998654,
 0.00086937,0.00311272,0.01355886,0.03573679,0.02172849,-0.07293269,-0.
 07015725,0.00311272,-0.00281785,-0.02378932,-0.02562258,0.06608842,0.0
 3875026,-0.06798816,-0.31373897,-0.00015403,0.00027024,-0.00176493,-0.
 04211665,0.07389457,0.33592573,-0.10508497,0.09706393,-0.09314063,-0.0
 0109383,0.00894642,-0.01340039,0.00693037,-0.00336970,0.00444849,0.261
 00574,0.09706393,-0.22006356,0.16341723,0.00894642,-0.01169146,0.02351
 128,-0.00336970,0.01092200,-0.00780498,-0.22968583,0.53308367,-0.10232
 752,0.17953584,-0.35826316,0.00294358,-0.00516457,0.00704711,-0.010141
 50,0.01779348,-0.02080547,0.04901413,-0.08599634,0.76606215,0.00637582
 ,-0.00212852,-0.01105748,-0.00558199,-0.00382774,-0.00008505,0.0086914
 7,0.00612260,-0.00169336,-0.05427329,0.02354165,0.04656008,0.04576009,
 -0.00212852,0.00889719,0.01940058,-0.00382774,-0.00104778,0.00014922,0
 .00612260,0.00143885,0.00297103,0.02354165,-0.08215991,-0.08169066,-0.
 03277357,0.08458254,0.00485923,-0.00852563,-0.02329480,-0.00012217,0.0
 0021435,0.00133338,-0.00167137,0.00293246,-0.00183174,0.04665406,-0.08
 185556,-0.29177523,-0.04880469,0.08562888,0.31342068,-0.00544686,0.020
 75731,-0.01112287,0.00829205,0.00427009,-0.00065742,-0.00554381,-0.003
 16765,0.00097566,-0.10436237,0.07900485,0.01535891,-0.00065064,0.00629
 411,-0.00100806,0.25502921,0.02075731,-0.03003526,0.01951531,0.0042700
 9,0.00323386,0.00115347,-0.00316765,-0.00179151,-0.00171181,0.07900485
 ,-0.19794879,-0.02694754,0.00629411,-0.00810643,0.00176866,-0.22287562
 ,0.51904000,-0.00898095,0.01575726,0.01655713,-0.00167533,0.00293941,-
 0.00315263,0.00051719,-0.00090743,0.00088558,-0.00812876,0.01426208,-0
 .11300781,0.01555093,-0.02728444,-0.00033858,-0.03336488,0.05853940,0.
 75789727,0.00019439,0.00300168,0.00142474,-0.00013883,0.00046788,-0.00
 057580,-0.00005027,-0.00015291,-0.00005881,-0.00125472,0.00748650,-0.0
 1464064,-0.00052965,-0.00082792,0.00009587,-0.05850176,0.03525755,-0.0
 5600236,0.05057135,0.00300168,-0.00336130,-0.00249973,0.00046788,-0.00
 069306,0.00101025,-0.00015291,0.00013087,0.00010318,0.00748650,-0.0101
 2297,0.02568732,-0.00082792,0.00045107,-0.00016820,0.03525755,-0.10026
 665,0.09825734,-0.04480368,0.10364425,0.00027444,-0.00048152,0.0009262
 4,0.00005399,-0.00009473,0.00001350,0.00010357,-0.00018171,0.00009639,
 0.00197057,-0.00345740,0.00321257,-0.00008678,0.00015225,0.00117394,-0
 .05609893,0.09842677,-0.26584995,0.05957009,-0.10451700,0.28639399,0.0
 0230531,-0.00293136,0.00571092,-0.00032134,-0.00035166,0.00008972,0.00
 010381,0.00022443,-0.00016629,-0.00728802,0.02092144,0.01112089,0.0004
 0587,0.00358658,0.00006657,-0.09013295,0.06139221,0.07445115,0.0066472
 6,-0.00252791,-0.00710550,0.26036354,-0.00293136,0.00577770,-0.0100199
 3,-0.00035166,0.00009522,-0.00015741,0.00022443,-0.00016204,0.00029175
 ,0.02092144,-0.03207084,-0.01951185,0.00358658,-0.00384267,-0.00011680
 ,0.06139221,-0.16285605,-0.13062615,-0.00252791,0.00964174,0.01246676,
 -0.22698956,0.52924756,-0.00484044,0.00849266,-0.00524651,-0.00006507,
 0.00011416,-0.00098197,-0.00050003,0.00087731,-0.00047821,0.01321931,-
 0.02319356,0.01006317,-0.00112120,0.00196717,0.00134355,0.07522679,-0.
 13198703,-0.37446274,0.00804143,-0.01410887,-0.02517999,-0.02970280,0.
 05211421,0.77388500,0.00013517,0.00035386,0.00042133,-0.00017347,-0.00
 018089,-0.00007418,0.00042397,0.00112257,-0.00002214,-0.00456511,-0.00
 228059,-0.00042411,-0.00004748,-0.00013431,-0.00010836,0.00742194,-0.0
 0345635,0.00794794,0.00740106,0.00512019,0.00160186,-0.05927412,0.0306
 2994,-0.05279851,0.04844181,0.00035386,-0.00028401,-0.00073923,-0.0001
 8089,0.00004080,0.00013015,0.00112257,-0.00090579,0.00003885,-0.002280
 59,-0.00186361,0.00074411,-0.00013431,0.00011162,0.00019012,-0.0034563
 5,0.01151622,-0.01394483,0.00512019,0.00133586,-0.00281050,0.03062994,
 -0.09555728,0.09263613,-0.04047339,0.09638519,0.00011577,-0.00020311,-
 0.00035045,-0.00000751,0.00001318,0.00052247,0.00012482,-0.00021899,0.
 00103713,-0.00070749,0.00124130,0.00098809,0.00004256,-0.00007467,0.00
 013558,-0.00687736,0.01206648,-0.02302114,0.00143949,-0.00252561,-0.00
 292328,-0.05280695,0.09265094,-0.27276810,0.05781592,-0.10143928,0.293
 73256,-0.00151071,0.00151085,-0.00282692,-0.00035277,-0.00023014,-0.00
 008588,0.00003595,0.00006069,0.00000518,0.01170434,-0.00275940,0.00250
 151,0.00011250,-0.00008938,-0.00005449,-0.00776179,0.02340669,0.015255
 01,-0.00500091,-0.00334396,-0.00125559,-0.10980310,0.08996355,-0.01520
 316,-0.00063348,0.00685964,0.00024014,0.26111685,0.00151085,-0.0033004
 1,0.00495989,-0.00023014,-0.00008015,0.00015068,0.00006069,-0.00003595
 ,-0.00000908,-0.00275940,0.01497303,-0.00438896,-0.00008938,0.00021838
 ,0.00009560,0.02340669,-0.03548855,-0.02676525,-0.00334396,-0.00103977
 ,0.00220296,0.08996355,-0.21637083,0.02667427,0.00685964,-0.00875918,-
 0.00042133,-0.22962178,0.53311891,0.00100314,-0.00176003,0.00143413,0.
 00001320,-0.00002316,0.00055402,0.00015964,-0.00028010,0.00064776,-0.0
 0282339,0.00495370,-0.00571240,0.00069273,-0.00121541,-0.00023225,0.02
 226885,-0.03907118,-0.00707401,0.00106730,-0.00187260,0.00108984,-0.01
 479800,0.02596341,-0.09865448,-0.01473486,0.02585263,0.00040231,-0.031
 76710,0.05573606,0.76809057,-0.00001270,0.00000722,-0.00010606,0.00002
 717,0.00001193,0.00006975,0.00003149,-0.00003007,0.00009348,-0.0000951
 1,-0.00020896,0.00016740,0.00002188,0.00003307,0.00002888,-0.00103710,
 -0.00143076,-0.00096135,0.00021367,0.00007954,0.00074609,-0.00086465,0
 .00672038,-0.01456356,0.00169223,0.00390896,0.00024134,-0.05828001,0.0
 3163465,-0.05329090,0.04905052,0.00000722,-0.00002126,0.00018609,0.000
 01193,0.00001304,-0.00012238,-0.00003007,0.00006711,-0.00016402,-0.000
 20896,0.00015242,-0.00029371,0.00003307,-0.00001729,-0.00005067,-0.001
 43076,0.00065773,0.00168672,0.00007954,0.00011945,-0.00130903,0.006720
 38,-0.00882537,0.02555208,0.00390896,-0.00293819,-0.00042343,0.0316346
 5,-0.09575333,0.09350004,-0.04005758,0.09650135,0.00005001,-0.00008775
 ,-0.00001438,0.00000324,-0.00000569,0.00000719,0.00000427,-0.00000748,
 0.00000036,-0.00009488,0.00016647,0.00017221,-0.00003345,0.00005870,0.
 00002192,0.00070330,-0.00123396,0.00109631,-0.00025369,0.00044511,0.00
 044793,0.00026184,-0.00045940,0.00050584,0.00024640,-0.00043231,0.0006
 0004,-0.05270120,0.09246539,-0.27010624,0.05742799,-0.10075865,0.29133
 871,0.00046194,-0.00075474,0.00138450,-0.00007630,0.00000083,-0.000013
 53,0.00003972,0.00000422,-0.00005776,-0.00137901,0.00298759,-0.0005187
 1,-0.00029687,0.00018465,0.00005279,0.00393152,-0.00159593,-0.00652095
 ,0.00001827,-0.00011698,0.00027753,-0.00813410,0.02265913,0.02199262,-
 0.00097574,-0.00146945,0.00061247,-0.08987433,0.06477684,0.07727186,0.
 00636588,-0.00264241,-0.00676875,0.25957008,-0.00075474,0.00135598,-0.
 00242913,0.00000083,-0.00007728,0.00002374,0.00000422,0.00003472,0.000
 10134,0.00298759,-0.00491800,0.00091008,0.00018465,-0.00051560,-0.0000
 9262,-0.00159593,0.00582200,0.01144114,-0.00011698,0.00015684,-0.00048
 693,0.02265913,-0.03497532,-0.03858653,-0.00146945,0.00076492,-0.00107
 459,0.06477684,-0.16660674,-0.13557514,-0.00264241,0.00949599,0.011875
 92,-0.22853083,0.53027984,-0.00107906,0.00189324,-0.00210090,-0.000002
 65,0.00000464,-0.00011306,-0.00002174,0.00003814,-0.00001868,0.0030980
 6,-0.00543561,0.00207076,-0.00006077,0.00010662,0.00010643,-0.00647660
 ,0.01136333,0.00939551,0.00003416,-0.00005993,0.00032448,0.01380181,-0
 .02421558,-0.00438817,-0.00092725,0.00162689,0.00093239,0.07573557,-0.
 13287969,-0.37366586,0.00819480,-0.01437795,-0.02336380,-0.03304223,0.
 05797331,0.76920572,-0.00005629,-0.00003203,0.00003350,0.00004591,0.00
 002629,-0.00000917,0.00000982,0.00001338,-0.00000909,0.00000801,0.0000
 4201,-0.00006093,0.00001041,-0.00000133,-0.00000500,0.00010561,-0.0000
 1264,0.00001998,0.00024301,0.00022893,-0.00007747,-0.00434770,-0.00314
 863,0.00082667,0.00021692,0.00013726,-0.00024347,0.00637258,-0.0026717
 7,0.00827539,0.00669828,0.00476527,0.00145383,-0.05743911,0.03172856,-
 0.05335916,0.04816732,-0.00003203,-0.00001835,-0.00005878,0.00002629,0
 .00001477,0.00001609,0.00001338,-0.00000603,0.00001594,0.00004201,-0.0
 0004176,0.00010691,-0.00000133,0.00001198,0.00000878,-0.00001264,0.000
 12059,-0.00003505,0.00022893,-0.00002818,0.00013591,-0.00314863,-0.000
 61795,-0.00145041,0.00013726,0.00005433,0.00042717,-0.00267177,0.00953
 746,-0.01451935,0.00476527,0.00105351,-0.00255077,0.03172856,-0.095023
 68,0.09361979,-0.03988712,0.09541622,0.00003556,-0.00006240,-0.0000349
 8,0.00000154,-0.00000271,0.00002672,0.00000580,-0.00001018,0.00002377,
 -0.00003103,0.00005444,-0.00001135,0.00000348,-0.00000610,0.00001063,0
 .00026570,-0.00046618,0.00023678,-0.00006871,0.00012054,0.00027527,-0.
 00118591,0.00208070,0.00112786,0.00069250,-0.00121501,0.00043169,-0.00
 674145,0.01182802,-0.02313493,0.00145350,-0.00255020,-0.00279302,-0.05
 263164,0.09234335,-0.27190582,0.05736606,-0.10064999,0.29280651,-0.000
 11183,0.00040474,-0.00079613,0.00010439,0.00001814,-0.00000094,-0.0001
 0416,-0.00003456,0.00000964,-0.00017712,-0.00211792,0.00083320,0.00003
 366,-0.00006147,-0.00003535,-0.00149965,0.00269531,0.00285725,0.000206
 61,0.00017808,-0.00001781,0.01240325,-0.00139116,-0.00281930,-0.000178
 05,-0.00009517,0.00001374,-0.00772939,0.02154227,0.01224494,-0.0044137
 2,-0.00316616,-0.00118472,-0.11048305,0.08571058,-0.01350230,-0.000790
 51,0.00648435,0.00042678,0.26112265,0.00040474,-0.00059127,0.00139682,
 0.00001814,0.00008290,0.00000164,-0.00003456,-0.00006321,-0.00001691,-
 0.00211792,0.00233170,-0.00146186,-0.00006147,0.00010648,0.00006203,0.
 00269531,-0.00469241,-0.00501310,0.00017808,-0.00000434,0.00003125,-0.
 00139116,0.01405117,0.00494652,-0.00009517,-0.00006532,-0.00002411,0.0
 2154227,-0.03324762,-0.02148401,-0.00316616,-0.00066319,0.00207861,0.0
 8571058,-0.21201285,0.02369008,0.00648435,-0.00847165,-0.00074880,-0.2
 2648893,0.52941364,0.00044153,-0.00077467,0.00045757,0.00002163,-0.000
 03795,0.00006749,-0.00000203,0.00000355,0.00002061,-0.00093042,0.00163
 244,-0.00049307,0.00008815,-0.00015466,-0.00009545,0.00227343,-0.00398
 878,-0.00165666,-0.00004761,0.00008354,0.00000621,-0.00255734,0.004486
 91,-0.00344120,0.00023321,-0.00040917,0.00047858,0.02135231,-0.0374630
 8,-0.00306880,0.00088548,-0.00155360,0.00104590,-0.01458406,0.02558804
 ,-0.10067668,-0.01463912,0.02568465,0.00054282,-0.04133988,0.07253171,
 0.79644583,-0.00002112,0.00001186,-0.00000055,0.00000137,0.00000336,0.
 00000056,0.00000604,0.00000146,0.00000161,0.00002403,-0.00001603,-0.00
 002597,-0.00000166,0.00000468,0.00000616,-0.00002964,0.00000614,0.0000
 4355,-0.00000082,0.00001835,0.00002873,-0.00016033,-0.00006766,0.00024
 688,0.00013971,-0.00008466,0.00006561,-0.00080822,-0.00139439,-0.00095
 247,0.00016577,0.00010323,0.00070177,-0.00087656,0.00674216,-0.0147563
 7,0.00141065,0.00381437,0.00029561,-0.05897948,0.03030101,-0.05337244,
 0.04947471,0.00001186,-0.00003517,0.00000096,0.00000336,-0.00000261,-0
 .00000099,0.00000146,0.00000431,-0.00000283,-0.00001603,0.00004301,0.0
 0004557,0.00000468,-0.00000720,-0.00001081,0.00000614,-0.00003691,-0.0
 0007641,0.00001835,-0.00002256,-0.00005041,-0.00006766,-0.00008018,-0.
 00043315,-0.00008466,0.00023999,-0.00011511,-0.00139439,0.00084353,0.0
 0167112,0.00010323,0.00004349,-0.00123128,0.00674216,-0.00886309,0.025
 89036,0.00381437,-0.00310771,-0.00051866,0.03030101,-0.09487302,0.0936
 4310,-0.03877073,0.09540118,-0.00002973,0.00005216,0.00002225,-0.00000
 504,0.00000884,-0.00000474,0.00000093,-0.00000164,-0.00000115,0.000017
 62,-0.00003091,-0.00006692,-0.00000983,0.00001725,0.00001791,-0.000052
 16,0.00009152,-0.00003590,0.00000128,-0.00000224,0.00000532,0.00000425
 ,-0.00000745,0.00053216,0.00006912,-0.00012127,-0.00014565,0.00058993,
 -0.00103505,0.00089253,-0.00026187,0.00045946,0.00046931,0.00024771,-0
 .00043461,0.00020375,0.00020742,-0.00036392,0.00068073,-0.05273150,0.0
 9251855,-0.27340048,0.05685592,-0.09975494,0.29449849,0.00001558,0.000
 01737,0.00030170,-0.00002086,0.00002547,-0.00001191,-0.00000426,-0.000
 02082,-0.00000744,-0.00024189,0.00038383,-0.00035295,-0.00002820,0.000
 06857,0.00004069,0.00021252,-0.00058205,-0.00099740,0.00003420,-0.0000
 2909,0.00001548,-0.00104952,0.00180992,0.00197334,-0.00004008,0.000017
 16,-0.00006009,0.00246441,0.00001307,-0.00446702,0.00009698,0.00000537
 ,0.00022873,-0.00466952,0.01938767,0.02003813,-0.00074602,-0.00135310,
 0.00043245,-0.09550924,0.08142095,0.09569586,0.00661551,-0.00259891,-0
 .00655997,0.25257758,0.00001737,-0.00000500,-0.00052934,0.00002547,-0.
 00005104,0.00002090,-0.00002082,0.00002040,0.00001305,0.00038383,-0.00
 069656,0.00061925,0.00006857,-0.00010943,-0.00007139,-0.00058205,0.000
 90200,0.00174996,-0.00002909,0.00006865,-0.00002717,0.00180992,-0.0031
 9349,-0.00346227,0.00001716,-0.00006041,0.00010543,0.00001307,0.002448
 93,0.00783748,0.00000537,0.00009062,-0.00040132,0.01938767,-0.02763548
 ,-0.03515733,-0.00135310,0.00085681,-0.00075874,0.08142095,-0.19195769
 ,-0.16790044,-0.00259891,0.00969409,0.01150960,-0.26561207,0.56721250,
 -0.00029496,0.00051752,-0.00063243,0.00000244,-0.00000428,-0.00002528,
 -0.00000600,0.00001052,-0.00000053,0.00086582,-0.00151911,0.00051556,0
 .00000322,-0.00000565,0.00001161,-0.00149691,0.00262635,0.00252248,-0.
 00002095,0.00003677,-0.00001851,0.00279831,-0.00490970,-0.00144121,0.0
 0003554,-0.00006235,-0.00007034,-0.00592065,0.01038791,0.00741133,-0.0
 0000587,0.00001029,0.00033623,0.01309856,-0.02298170,-0.00301325,-0.00
 065388,0.00114725,0.00119921,0.08814210,-0.15464722,-0.39954152,0.0092
 5054,-0.01623027,-0.02247549,-0.04373229,0.07672925,0.76576117,-0.0000
 2896,0.00001486,-0.00000396,-0.00003002,-0.00001079,-0.00000058,0.0000
 2913,0.00001284,0.00000211,0.00023114,0.00009172,-0.00000709,-0.000006
 47,0.00000908,0.00000729,-0.00005866,0.00005441,0.00001249,-0.00006575
 ,-0.00004190,0.00000223,-0.00110815,-0.00067638,0.00012808,0.00001446,
 0.00000226,-0.00000791,-0.00003171,0.00040669,-0.00018447,0.00012004,0
 .00006779,0.00003608,0.00910974,0.00474993,0.00157704,-0.00012852,-0.0
 0026391,-0.00004504,-0.00024972,0.00769015,-0.00200885,-0.00500897,-0.
 00347666,0.00013291,-0.10806455,0.13483578,-0.00908968,0.10544371,0.00
 001486,-0.00004657,0.00000695,-0.00001079,-0.00001724,0.00000101,0.000
 01284,0.00001392,-0.00000370,0.00009172,0.00012249,0.00001244,0.000009
 08,-0.00001722,-0.00001278,0.00005441,-0.00012311,-0.00002192,-0.00004
 190,-0.00001612,-0.00000391,-0.00067638,-0.00030693,-0.00022473,0.0000
 0226,0.00001179,0.00001387,0.00040669,-0.00051345,0.00032366,0.0000677
 9,0.00003974,-0.00006331,0.00474993,0.00348314,-0.00276695,-0.00026391
 ,0.00018410,0.00007903,0.00769015,-0.00935920,0.00352457,-0.00347666,-
 0.00089064,-0.00023319,0.13483578,-0.26778637,0.01594804,-0.14765799,0
 .28035427,0.00001850,-0.00003246,-0.00001894,0.00000353,-0.00000620,0.
 00000412,-0.00000210,0.00000368,0.00000024,-0.00001063,0.00001865,0.00
 001293,0.00001108,-0.00001944,-0.00000890,0.00005451,-0.00009565,0.000
 06023,-0.00000343,0.00000602,-0.00000507,0.00005721,-0.00010038,-0.000
 45628,0.00000199,-0.00000349,0.00001681,0.00060902,-0.00106855,0.00091
 157,-0.00004649,0.00008158,-0.00000305,0.00042113,-0.00073889,-0.00440
 526,0.00020951,-0.00036758,0.00020834,0.01432556,-0.02513450,0.0053937
 6,-0.00005459,0.00009577,0.00129703,-0.01135391,0.01992068,-0.06024210
 ,0.00886101,-0.01554683,0.05557739,-0.00000479,-0.00001362,0.00000540,
 0.00002264,0.00001097,-0.00000041,-0.00001158,-0.00000511,-0.00000087,
 -0.00008818,-0.00003151,-0.00000027,0.00000453,-0.00000075,-0.00000205
 ,0.00003236,-0.00001766,-0.00002351,0.00001289,0.00000564,-0.00000250,
 0.00025493,0.00017675,-0.00004106,0.00000026,0.00002296,-0.00000107,-0
 .00002023,-0.00006412,0.00002116,0.00021937,0.00019852,-0.00008077,-0.
 00529258,-0.00382181,0.00074856,0.00021963,0.00013010,-0.00027522,0.00
 635534,-0.00309019,0.00849015,0.00804899,0.00540239,0.00152301,-0.0516
 4265,0.03221086,-0.05297534,-0.00016675,0.00419213,-0.01310191,0.04205
 582,-0.00001362,0.00001135,-0.00000947,0.00001097,0.00000965,0.0000007
 3,-0.00000511,-0.00000552,0.00000153,-0.00003151,-0.00005086,0.0000004
 7,-0.00000075,0.00000543,0.00000360,-0.00001766,0.00005328,0.00004125,
 0.00000564,0.00000620,0.00000439,0.00017675,0.00004556,0.00007204,0.00
 002296,-0.00002695,0.00000188,-0.00006412,0.00005573,-0.00003712,0.000
 19852,-0.00001580,0.00014172,-0.00382181,-0.00076540,-0.00131336,0.000
 13010,0.00006552,0.00048288,-0.00309019,0.01001588,-0.01489616,0.00540
 239,0.00164951,-0.00267216,0.03221086,-0.08979853,0.09294637,0.0041921
 3,-0.00513260,0.02298758,-0.03530556,0.08387756,0.00001006,-0.00001765
 ,0.00000742,0.00000046,-0.00000080,0.00000257,-0.00000022,0.00000038,0
 .00000213,-0.00002045,0.00003587,-0.00000913,0.00000038,-0.00000067,0.
 00000132,0.00002803,-0.00004917,-0.00005187,-0.00000234,0.00000411,0.0
 0001113,-0.00003988,0.00006996,0.00004130,0.00002362,-0.00004144,0.000
 00131,0.00026777,-0.00046981,0.00021490,-0.00007261,0.00012739,0.00023
 854,-0.00122154,0.00214322,0.00141243,0.00066493,-0.00116664,0.0003098
 0,-0.00642529,0.01127330,-0.02208491,0.00166543,-0.00292203,-0.0024891
 4,-0.05118342,0.08980240,-0.29029694,0.00058834,-0.00103225,0.00165717
 ,0.05571672,-0.09775618,0.31103195\\-0.00000804,0.00001410,-0.00002335
 ,-0.00000484,0.00000849,0.00000034,-0.00000027,0.00000047,-0.00001331,
 0.00000253,-0.00000444,0.00001548,-0.00000878,0.00001540,0.00000267,0.
 00000667,-0.00001170,0.00005170,0.00000179,-0.00000314,-0.00000550,0.0
 0002420,-0.00004246,-0.00003587,-0.00000279,0.00000490,0.00000905,-0.0
 0002139,0.00003752,0.00003319,-0.00000307,0.00000538,-0.00002004,0.000
 02131,-0.00003739,-0.00002486,0.00000171,-0.00000300,0.00001502,-0.000
 01918,0.00003364,-0.00000496,0.00000070,-0.00000123,-0.00000358,0.0000
 0300,-0.00000527,-0.00000323,0.00000432,-0.00000758,0.00000373,0.00000
 211,-0.00000370,0.00000350\\\@


 ART, GLORY, FREEDOM FAIL, BUT NATURE STILL IS FAIR.

                                           -- BYRON
 Job cpu time:  0 days  0 hours  2 minutes 28.1 seconds.
 File lengths (MBytes):  RWF=     49 Int=      0 D2E=      0 Chk=      3 Scr=      1
 Normal termination of Gaussian 09 at Tue Mar  2 14:30:00 2021.
