 Entering Gaussian System, Link 0=g09
 Input=octa_1g,2,3g-cis.com
 Output=octa_1g,2,3g-cis.log
 Initial command:
 /home/student/g09/l1.exe /home/student/Aniruddha_1811022/Lab_3/Gau-10740.inp -scrdir=/home/student/Aniruddha_1811022/Lab_3/
 Entering Link 1 = /home/student/g09/l1.exe PID=     10742.
  
 Copyright (c) 1988,1990,1992,1993,1995,1998,2003,2009,2011,
            Gaussian, Inc.  All Rights Reserved.
  
 This is part of the Gaussian(R) 09 program.  It is based on
 the Gaussian(R) 03 system (copyright 2003, Gaussian, Inc.),
 the Gaussian(R) 98 system (copyright 1998, Gaussian, Inc.),
 the Gaussian(R) 94 system (copyright 1995, Gaussian, Inc.),
 the Gaussian 92(TM) system (copyright 1992, Gaussian, Inc.),
 the Gaussian 90(TM) system (copyright 1990, Gaussian, Inc.),
 the Gaussian 88(TM) system (copyright 1988, Gaussian, Inc.),
 the Gaussian 86(TM) system (copyright 1986, Carnegie Mellon
 University), and the Gaussian 82(TM) system (copyright 1983,
 Carnegie Mellon University). Gaussian is a federally registered
 trademark of Gaussian, Inc.
  
 This software contains proprietary and confidential information,
 including trade secrets, belonging to Gaussian, Inc.
  
 This software is provided under written license and may be
 used, copied, transmitted, or stored only in accord with that
 written license.
  
 The following legend is applicable only to US Government
 contracts under FAR:
  
                    RESTRICTED RIGHTS LEGEND
  
 Use, reproduction and disclosure by the US Government is
 subject to restrictions as set forth in subparagraphs (a)
 and (c) of the Commercial Computer Software - Restricted
 Rights clause in FAR 52.227-19.
  
 Gaussian, Inc.
 340 Quinnipiac St., Bldg. 40, Wallingford CT 06492
  
  
 ---------------------------------------------------------------
 Warning -- This program may not be used in any manner that
 competes with the business of Gaussian, Inc. or will provide
 assistance to any competitor of Gaussian, Inc.  The licensee
 of this program is prohibited from giving any competitor of
 Gaussian, Inc. access to this program.  By using this program,
 the user acknowledges that Gaussian, Inc. is engaged in the
 business of creating and licensing software in the field of
 computational chemistry and represents and warrants to the
 licensee that it is not a competitor of Gaussian, Inc. and that
 it will not use this program in any manner prohibited above.
 ---------------------------------------------------------------
  

 Cite this work as:
 Gaussian 09, Revision C.01,
 M. J. Frisch, G. W. Trucks, H. B. Schlegel, G. E. Scuseria, 
 M. A. Robb, J. R. Cheeseman, G. Scalmani, V. Barone, B. Mennucci, 
 G. A. Petersson, H. Nakatsuji, M. Caricato, X. Li, H. P. Hratchian, 
 A. F. Izmaylov, J. Bloino, G. Zheng, J. L. Sonnenberg, M. Hada, 
 M. Ehara, K. Toyota, R. Fukuda, J. Hasegawa, M. Ishida, T. Nakajima, 
 Y. Honda, O. Kitao, H. Nakai, T. Vreven, J. A. Montgomery, Jr., 
 J. E. Peralta, F. Ogliaro, M. Bearpark, J. J. Heyd, E. Brothers, 
 K. N. Kudin, V. N. Staroverov, T. Keith, R. Kobayashi, J. Normand, 
 K. Raghavachari, A. Rendell, J. C. Burant, S. S. Iyengar, J. Tomasi, 
 M. Cossi, N. Rega, J. M. Millam, M. Klene, J. E. Knox, J. B. Cross, 
 V. Bakken, C. Adamo, J. Jaramillo, R. Gomperts, R. E. Stratmann, 
 O. Yazyev, A. J. Austin, R. Cammi, C. Pomelli, J. W. Ochterski, 
 R. L. Martin, K. Morokuma, V. G. Zakrzewski, G. A. Voth, 
 P. Salvador, J. J. Dannenberg, S. Dapprich, A. D. Daniels, 
 O. Farkas, J. B. Foresman, J. V. Ortiz, J. Cioslowski, 
 and D. J. Fox, Gaussian, Inc., Wallingford CT, 2010.
 
 ******************************************
 Gaussian 09:  EM64L-G09RevC.01 23-Sep-2011
                 2-Mar-2021 
 ******************************************
 %chk=octa_1g,2,3g-cis.chk
 -----------------------------------------
 # b3lyp/6-31g* geom=connectivity opt freq
 -----------------------------------------
 1/14=-1,18=20,19=15,26=3,38=1,57=2/1,3;
 2/9=110,12=2,17=6,18=5,40=1/2;
 3/5=1,6=6,7=1,11=2,16=1,25=1,30=1,71=1,74=-5/1,2,3;
 4//1;
 5/5=2,38=5/2;
 6/7=2,8=2,9=2,10=2,28=1/1;
 7//1,2,3,16;
 1/14=-1,18=20,19=15/3(2);
 2/9=110/2;
 99//99;
 2/9=110/2;
 3/5=1,6=6,7=1,11=2,16=1,25=1,30=1,71=1,74=-5/1,2,3;
 4/5=5,16=3/1;
 5/5=2,38=5/2;
 7//1,2,3,16;
 1/14=-1,18=20,19=15/3(-5);
 2/9=110/2;
 6/7=2,8=2,9=2,10=2,19=2,28=1/1;
 99/9=1/99;
 -------------------
 Title Card Required
 -------------------
 Charge =  0 Multiplicity = 1
 Symbolic Z-Matrix:
 C                    -0.43321  -3.7791    0.15347 
 H                    -0.26806  -4.83235   0.1628 
 H                    -1.30888  -3.37747   0.61238 
 C                     0.46288  -2.95205  -0.43756 
 H                     1.33855  -3.35367  -0.89647 
 C                     0.22519  -1.43615  -0.45099 
 H                     0.1446   -0.92217  -1.38266 
 C                     0.11774  -0.75091   0.71316 
 H                     0.1968   -1.25507   1.63547 
 C                    -0.11774   0.75091   0.71316 
 H                    -0.1968    1.25507   1.63547 
 C                    -0.22519   1.43615  -0.45099 
 H                    -0.1446    0.92217  -1.38266 
 C                    -0.46288   2.95205  -0.43756 
 H                    -1.33855   3.35367  -0.89647 
 C                     0.43321   3.7791    0.15347 
 H                     0.26806   4.83235   0.1628 
 H                     1.30888   3.37747   0.61238 
 

 GradGradGradGradGradGradGradGradGradGradGradGradGradGradGradGradGradGrad
 Berny optimization.
 Initialization pass.
                           ----------------------------
                           !    Initial Parameters    !
                           ! (Angstroms and Degrees)  !
 --------------------------                            --------------------------
 ! Name  Definition              Value          Derivative Info.                !
 --------------------------------------------------------------------------------
 ! R1    R(1,2)                  1.0662         estimate D2E/DX2                !
 ! R2    R(1,3)                  1.0671         estimate D2E/DX2                !
 ! R3    R(1,4)                  1.3551         estimate D2E/DX2                !
 ! R4    R(4,5)                  1.0671         estimate D2E/DX2                !
 ! R5    R(4,6)                  1.5345         estimate D2E/DX2                !
 ! R6    R(6,7)                  1.0671         estimate D2E/DX2                !
 ! R7    R(6,8)                  1.3551         estimate D2E/DX2                !
 ! R8    R(8,9)                  1.0541         estimate D2E/DX2                !
 ! R9    R(8,10)                 1.5202         estimate D2E/DX2                !
 ! R10   R(10,11)                1.0541         estimate D2E/DX2                !
 ! R11   R(10,12)                1.3551         estimate D2E/DX2                !
 ! R12   R(12,13)                1.0671         estimate D2E/DX2                !
 ! R13   R(12,14)                1.5345         estimate D2E/DX2                !
 ! R14   R(14,15)                1.0671         estimate D2E/DX2                !
 ! R15   R(14,16)                1.3551         estimate D2E/DX2                !
 ! R16   R(16,17)                1.0662         estimate D2E/DX2                !
 ! R17   R(16,18)                1.0671         estimate D2E/DX2                !
 ! A1    A(2,1,3)              119.6808         estimate D2E/DX2                !
 ! A2    A(2,1,4)              120.2859         estimate D2E/DX2                !
 ! A3    A(3,1,4)              120.0332         estimate D2E/DX2                !
 ! A4    A(1,4,5)              120.0332         estimate D2E/DX2                !
 ! A5    A(1,4,6)              120.2859         estimate D2E/DX2                !
 ! A6    A(5,4,6)              119.6808         estimate D2E/DX2                !
 ! A7    A(4,6,7)              119.6808         estimate D2E/DX2                !
 ! A8    A(4,6,8)              120.2859         estimate D2E/DX2                !
 ! A9    A(7,6,8)              120.0332         estimate D2E/DX2                !
 ! A10   A(6,8,9)              120.2567         estimate D2E/DX2                !
 ! A11   A(6,8,10)             120.7871         estimate D2E/DX2                !
 ! A12   A(9,8,10)             118.9562         estimate D2E/DX2                !
 ! A13   A(8,10,11)            118.9562         estimate D2E/DX2                !
 ! A14   A(8,10,12)            120.7871         estimate D2E/DX2                !
 ! A15   A(11,10,12)           120.2567         estimate D2E/DX2                !
 ! A16   A(10,12,13)           120.0332         estimate D2E/DX2                !
 ! A17   A(10,12,14)           120.2859         estimate D2E/DX2                !
 ! A18   A(13,12,14)           119.6808         estimate D2E/DX2                !
 ! A19   A(12,14,15)           119.6808         estimate D2E/DX2                !
 ! A20   A(12,14,16)           120.2859         estimate D2E/DX2                !
 ! A21   A(15,14,16)           120.0332         estimate D2E/DX2                !
 ! A22   A(14,16,17)           120.2859         estimate D2E/DX2                !
 ! A23   A(14,16,18)           120.0332         estimate D2E/DX2                !
 ! A24   A(17,16,18)           119.6808         estimate D2E/DX2                !
 ! D1    D(2,1,4,5)              0.0            estimate D2E/DX2                !
 ! D2    D(2,1,4,6)            180.0            estimate D2E/DX2                !
 ! D3    D(3,1,4,5)            180.0            estimate D2E/DX2                !
 ! D4    D(3,1,4,6)              0.0            estimate D2E/DX2                !
 ! D5    D(1,4,6,7)           -120.0            estimate D2E/DX2                !
 ! D6    D(1,4,6,8)             60.0            estimate D2E/DX2                !
 ! D7    D(5,4,6,7)             60.0            estimate D2E/DX2                !
 ! D8    D(5,4,6,8)           -120.0            estimate D2E/DX2                !
 ! D9    D(4,6,8,9)              0.0            estimate D2E/DX2                !
 ! D10   D(4,6,8,10)           180.0            estimate D2E/DX2                !
 ! D11   D(7,6,8,9)           -180.0            estimate D2E/DX2                !
 ! D12   D(7,6,8,10)             0.0            estimate D2E/DX2                !
 ! D13   D(6,8,10,11)          180.0            estimate D2E/DX2                !
 ! D14   D(6,8,10,12)            0.0            estimate D2E/DX2                !
 ! D15   D(9,8,10,11)            0.0            estimate D2E/DX2                !
 ! D16   D(9,8,10,12)          180.0            estimate D2E/DX2                !
 ! D17   D(8,10,12,13)           0.0            estimate D2E/DX2                !
 ! D18   D(8,10,12,14)         180.0            estimate D2E/DX2                !
 ! D19   D(11,10,12,13)       -180.0            estimate D2E/DX2                !
 ! D20   D(11,10,12,14)          0.0            estimate D2E/DX2                !
 ! D21   D(10,12,14,15)       -120.0            estimate D2E/DX2                !
 ! D22   D(10,12,14,16)         60.0            estimate D2E/DX2                !
 ! D23   D(13,12,14,15)         60.0            estimate D2E/DX2                !
 ! D24   D(13,12,14,16)       -120.0            estimate D2E/DX2                !
 ! D25   D(12,14,16,17)        180.0            estimate D2E/DX2                !
 ! D26   D(12,14,16,18)          0.0            estimate D2E/DX2                !
 ! D27   D(15,14,16,17)          0.0            estimate D2E/DX2                !
 ! D28   D(15,14,16,18)        180.0            estimate D2E/DX2                !
 --------------------------------------------------------------------------------
 Trust Radius=3.00D-01 FncErr=1.00D-07 GrdErr=1.00D-06
 Number of steps in this run=     79 maximum allowed number of steps=    108.
 GradGradGradGradGradGradGradGradGradGradGradGradGradGradGradGradGradGrad

                          Input orientation:                          
 ---------------------------------------------------------------------
 Center     Atomic      Atomic             Coordinates (Angstroms)
 Number     Number       Type             X           Y           Z
 ---------------------------------------------------------------------
      1          6           0       -0.433212   -3.779101    0.153475
      2          1           0       -0.268062   -4.832353    0.162801
      3          1           0       -1.308881   -3.377475    0.612380
      4          6           0        0.462882   -2.952045   -0.437565
      5          1           0        1.338550   -3.353672   -0.896470
      6          6           0        0.225189   -1.436151   -0.450988
      7          1           0        0.144597   -0.922169   -1.382664
      8          6           0        0.117743   -0.750909    0.713157
      9          1           0        0.196796   -1.255075    1.635474
     10          6           0       -0.117743    0.750909    0.713157
     11          1           0       -0.196796    1.255075    1.635474
     12          6           0       -0.225189    1.436151   -0.450988
     13          1           0       -0.144597    0.922169   -1.382664
     14          6           0       -0.462882    2.952045   -0.437565
     15          1           0       -1.338550    3.353672   -0.896470
     16          6           0        0.433212    3.779101    0.153475
     17          1           0        0.268062    4.832353    0.162801
     18          1           0        1.308881    3.377475    0.612380
 ---------------------------------------------------------------------
                    Distance matrix (angstroms):
                    1          2          3          4          5
     1  C    0.000000
     2  H    1.066161   0.000000
     3  H    1.067095   1.844477   0.000000
     4  C    1.355114   2.104822   2.102978   0.000000
     5  H    2.102978   2.426882   3.047308   1.067095   0.000000
     6  C    2.507645   3.486290   2.693113   1.534475   2.261618
     7  H    3.294791   4.224723   3.481569   2.261618   2.752111
     8  C    3.128378   4.136414   2.990696   2.507645   3.294791
     9  H    2.993984   3.896380   2.796134   2.692211   3.481157
    10  C    4.575342   5.612334   4.297966   3.920861   4.643196
    11  H    5.253108   6.263435   4.872778   4.736298   5.478008
    12  C    5.254284   6.298628   5.047388   4.441834   5.058274
    13  H    4.954288   5.959717   4.880850   4.033829   4.551805
    14  C    6.757110   7.809945   6.471547   5.976230   6.574026
    15  H    7.266256   8.323401   6.898249   6.574026   7.221865
    16  C    7.607701   8.639966   7.379841   6.757110   7.266256
    17  H    8.639966   9.679564   8.371985   7.809945   8.323401
    18  H    7.379841   8.371985   7.244447   6.471547   6.898249
                    6          7          8          9         10
     6  C    0.000000
     7  H    1.067095   0.000000
     8  C    1.355114   2.102978   0.000000
     9  H    2.094497   3.036891   1.054088   0.000000
    10  C    2.501212   2.694527   1.520167   2.230151   0.000000
    11  H    3.431339   3.737124   2.230151   2.540820   1.054088
    12  C    2.907397   2.562506   2.501212   3.431339   1.355114
    13  H    2.562506   1.866873   2.694527   3.737124   2.102978
    14  C    4.441834   4.033829   3.920861   4.736298   2.507645
    15  H    5.058274   4.551805   4.643196   5.478008   3.294791
    16  C    5.254284   4.954288   4.575342   5.253108   3.128378
    17  H    6.298628   5.959717   5.612334   6.263435   4.136414
    18  H    5.047388   4.880850   4.297966   4.872778   2.990696
                   11         12         13         14         15
    11  H    0.000000
    12  C    2.094497   0.000000
    13  H    3.036891   1.067095   0.000000
    14  C    2.692211   1.534475   2.261618   0.000000
    15  H    3.481157   2.261618   2.752111   1.067095   0.000000
    16  C    2.993984   2.507645   3.294791   1.355114   2.102978
    17  H    3.896380   3.486290   4.224723   2.104822   2.426882
    18  H    2.796134   2.693113   3.481569   2.102978   3.047308
                   16         17         18
    16  C    0.000000
    17  H    1.066161   0.000000
    18  H    1.067095   1.844477   0.000000
 Stoichiometry    C8H10
 Framework group  C2[X(C8H10)]
 Deg. of freedom    25
 Full point group                 C2      NOp   2
 Largest Abelian subgroup         C2      NOp   2
 Largest concise Abelian subgroup C2      NOp   2
                         Standard orientation:                         
 ---------------------------------------------------------------------
 Center     Atomic      Atomic             Coordinates (Angstroms)
 Number     Number       Type             X           Y           Z
 ---------------------------------------------------------------------
      1          6           0       -1.013395   -3.666376    0.153475
      2          1           0       -1.013395   -4.732496    0.162801
      3          1           0       -1.816278   -3.133949    0.612380
      4          6           0        0.000000   -2.988115   -0.437565
      5          1           0        0.802883   -3.520541   -0.896470
      6          6           0        0.000000   -1.453698   -0.450988
      7          1           0        0.000000   -0.933437   -1.382664
      8          6           0        0.000000   -0.760084    0.713157
      9          1           0        0.000000   -1.270410    1.635474
     10          6           0        0.000000    0.760084    0.713157
     11          1           0        0.000000    1.270410    1.635474
     12          6           0        0.000000    1.453698   -0.450988
     13          1           0        0.000000    0.933437   -1.382664
     14          6           0        0.000000    2.988115   -0.437565
     15          1           0       -0.802883    3.520541   -0.896470
     16          6           0        1.013395    3.666376    0.153475
     17          1           0        1.013395    4.732496    0.162801
     18          1           0        1.816278    3.133949    0.612380
 ---------------------------------------------------------------------
 Rotational constants (GHZ):      9.6366982      0.6912689      0.6770084
 Standard basis: 6-31G(d) (6D, 7F)
 There are    70 symmetry adapted basis functions of A   symmetry.
 There are    70 symmetry adapted basis functions of B   symmetry.
 Integral buffers will be    131072 words long.
 Raffenetti 2 integral format.
 Two-electron integral symmetry is turned on.
   140 basis functions,   264 primitive gaussians,   140 cartesian basis functions
    29 alpha electrons       29 beta electrons
       nuclear repulsion energy       303.7329775772 Hartrees.
 NAtoms=   18 NActive=   18 NUniq=    9 SFac= 4.00D+00 NAtFMM=   60 NAOKFM=F Big=F
 One-electron integrals computed using PRISM.
 NBasis=   140 RedAO= T  NBF=    70    70
 NBsUse=   140 1.00D-06 NBFU=    70    70
 Harris functional with IExCor=  402 diagonalized for initial guess.
 ExpMin= 1.61D-01 ExpMax= 3.05D+03 ExpMxC= 4.57D+02 IAcc=1 IRadAn=         1 AccDes= 0.00D+00
 HarFok:  IExCor=  402 AccDes= 0.00D+00 IRadAn=         1 IDoV= 1
 ScaDFX=  1.000000  1.000000  1.000000  1.000000
 FoFCou: FMM=F IPFlag=           0 FMFlag=      100000 FMFlg1=           0
         NFxFlg=           0 DoJE=T BraDBF=F KetDBF=T FulRan=T
         Omega=  0.000000  0.000000  1.000000  0.000000  0.000000 ICntrl=     500 IOpCl=  0
         NMat0=    1 NMatS0=    1 NMatT0=    0 NMatD0=    1 NMtDS0=    0 NMtDT0=    0
         I1Cent=           4 NGrid=           0.
 Petite list used in FoFCou.
 Initial guess orbital symmetries:
       Occupied  (B) (A) (A) (B) (B) (A) (B) (A) (A) (B) (A) (B)
                 (A) (B) (A) (B) (A) (B) (A) (A) (B) (A) (B) (B)
                 (A) (B) (A) (B) (A)
       Virtual   (B) (A) (B) (A) (A) (A) (B) (B) (A) (A) (B) (B)
                 (A) (B) (A) (B) (A) (B) (A) (B) (B) (A) (B) (A)
                 (A) (B) (B) (A) (B) (A) (A) (B) (A) (B) (A) (B)
                 (B) (A) (A) (B) (A) (B) (B) (A) (A) (B) (B) (A)
                 (A) (B) (A) (A) (B) (B) (B) (A) (A) (B) (A) (B)
                 (B) (A) (B) (A) (B) (B) (A) (B) (A) (B) (A) (A)
                 (B) (B) (A) (A) (B) (A) (A) (B) (A) (B) (A) (B)
                 (B) (A) (B) (A) (B) (A) (B) (A) (B) (A) (A) (B)
                 (A) (B) (A) (B) (A) (B) (B) (A) (A) (B) (B) (A)
                 (B) (A) (B)
 The electronic state of the initial guess is 1-A.
 Requested convergence on RMS density matrix=1.00D-08 within 128 cycles.
 Requested convergence on MAX density matrix=1.00D-06.
 Requested convergence on             energy=1.00D-06.
 No special actions if energy rises.
 Integral accuracy reduced to 1.0D-05 until final iterations.
 Initial convergence to 1.0D-05 achieved.  Increase integral accuracy.
 SCF Done:  E(RB3LYP) =  -310.763860932     A.U. after   13 cycles
             Convg  =    0.7598D-08             -V/T =  2.0103

 **********************************************************************

            Population analysis using the SCF density.

 **********************************************************************

 Orbital symmetries:
       Occupied  (B) (A) (A) (B) (A) (B) (B) (A) (A) (B) (A) (B)
                 (A) (B) (A) (B) (A) (B) (A) (A) (B) (A) (B) (B)
                 (A) (B) (A) (B) (A)
       Virtual   (B) (A) (B) (A) (A) (B) (A) (A) (B) (A) (B) (B)
                 (A) (B) (B) (A) (A) (B) (A) (B) (B) (A) (B) (B)
                 (A) (A) (A) (B) (B) (A) (A) (B) (A) (B) (B) (A)
                 (B) (A) (A) (B) (A) (A) (B) (B) (A) (B) (B) (A)
                 (A) (B) (A) (A) (B) (B) (B) (A) (A) (B) (A) (B)
                 (B) (A) (B) (B) (A) (B) (A) (B) (A) (B) (A) (A)
                 (B) (B) (A) (A) (B) (A) (A) (B) (A) (B) (A) (B)
                 (B) (A) (B) (A) (B) (A) (B) (A) (B) (A) (A) (B)
                 (A) (B) (A) (B) (A) (B) (B) (A) (A) (B) (B) (A)
                 (B) (A) (B)
 The electronic state is 1-A.
 Alpha  occ. eigenvalues --  -10.19488 -10.19488 -10.19126 -10.19125 -10.19002
 Alpha  occ. eigenvalues --  -10.18981 -10.17836 -10.17836  -0.81317  -0.78328
 Alpha  occ. eigenvalues --   -0.74589  -0.69649  -0.62757  -0.58152  -0.55931
 Alpha  occ. eigenvalues --   -0.51764  -0.49310  -0.46184  -0.44273  -0.42677
 Alpha  occ. eigenvalues --   -0.40979  -0.39169  -0.37480  -0.35477  -0.33533
 Alpha  occ. eigenvalues --   -0.31192  -0.26903  -0.25699  -0.21108
 Alpha virt. eigenvalues --   -0.03541   0.01437   0.02737   0.08474   0.11622
 Alpha virt. eigenvalues --    0.13611   0.14036   0.14136   0.15482   0.15954
 Alpha virt. eigenvalues --    0.18978   0.19272   0.20550   0.23070   0.29507
 Alpha virt. eigenvalues --    0.29721   0.30468   0.32551   0.35018   0.38257
 Alpha virt. eigenvalues --    0.46891   0.48418   0.51890   0.54082   0.54167
 Alpha virt. eigenvalues --    0.55665   0.56700   0.56897   0.58817   0.59791
 Alpha virt. eigenvalues --    0.62960   0.63625   0.64779   0.66230   0.66492
 Alpha virt. eigenvalues --    0.66885   0.68344   0.70023   0.72240   0.77061
 Alpha virt. eigenvalues --    0.83003   0.83882   0.84947   0.86996   0.87706
 Alpha virt. eigenvalues --    0.89776   0.90669   0.91312   0.92975   0.94020
 Alpha virt. eigenvalues --    0.95822   0.96969   0.98764   1.03312   1.08109
 Alpha virt. eigenvalues --    1.09994   1.10736   1.15874   1.19252   1.22357
 Alpha virt. eigenvalues --    1.28069   1.30886   1.39070   1.47914   1.48753
 Alpha virt. eigenvalues --    1.49718   1.53709   1.54382   1.61464   1.66592
 Alpha virt. eigenvalues --    1.72862   1.75516   1.75568   1.78998   1.80680
 Alpha virt. eigenvalues --    1.90315   1.92484   1.97222   2.00148   2.00479
 Alpha virt. eigenvalues --    2.05182   2.09874   2.11889   2.17172   2.19677
 Alpha virt. eigenvalues --    2.21111   2.23405   2.25103   2.31486   2.36323
 Alpha virt. eigenvalues --    2.39447   2.43158   2.47261   2.48415   2.57560
 Alpha virt. eigenvalues --    2.59625   2.65481   2.71412   2.76708   2.80856
 Alpha virt. eigenvalues --    2.89171   2.94013   3.10566   4.08071   4.11491
 Alpha virt. eigenvalues --    4.12653   4.18837   4.22254   4.34191   4.39842
 Alpha virt. eigenvalues --    4.50894
          Condensed to atoms (all electrons):
              1          2          3          4          5          6
     1  C    5.009189   0.362814   0.371722   0.664806  -0.048512  -0.040201
     2  H    0.362814   0.567170  -0.039976  -0.029640  -0.006366   0.005018
     3  H    0.371722  -0.039976   0.553981  -0.036601   0.006105  -0.008487
     4  C    0.664806  -0.029640  -0.036601   4.846163   0.364559   0.380505
     5  H   -0.048512  -0.006366   0.006105   0.364559   0.585831  -0.043587
     6  C   -0.040201   0.005018  -0.008487   0.380505  -0.043587   4.950277
     7  H    0.002311  -0.000164   0.000284  -0.041804   0.000532   0.351451
     8  C   -0.010284   0.000245   0.004187  -0.027482   0.001523   0.652100
     9  H    0.004161  -0.000122   0.000960  -0.005662   0.000253  -0.056947
    10  C    0.000226   0.000003  -0.000167   0.004333  -0.000114  -0.034469
    11  H   -0.000005   0.000000   0.000004  -0.000111   0.000002   0.005038
    12  C    0.000005   0.000000  -0.000006   0.000373   0.000007  -0.019714
    13  H   -0.000004   0.000000   0.000002   0.000077   0.000009   0.005101
    14  C    0.000000   0.000000   0.000000  -0.000005   0.000000   0.000373
    15  H    0.000000   0.000000   0.000000   0.000000   0.000000   0.000007
    16  C    0.000000   0.000000   0.000000   0.000000   0.000000   0.000005
    17  H    0.000000   0.000000   0.000000   0.000000   0.000000   0.000000
    18  H    0.000000   0.000000   0.000000   0.000000   0.000000  -0.000006
              7          8          9         10         11         12
     1  C    0.002311  -0.010284   0.004161   0.000226  -0.000005   0.000005
     2  H   -0.000164   0.000245  -0.000122   0.000003   0.000000   0.000000
     3  H    0.000284   0.004187   0.000960  -0.000167   0.000004  -0.000006
     4  C   -0.041804  -0.027482  -0.005662   0.004333  -0.000111   0.000373
     5  H    0.000532   0.001523   0.000253  -0.000114   0.000002   0.000007
     6  C    0.351451   0.652100  -0.056947  -0.034469   0.005038  -0.019714
     7  H    0.587616  -0.039953   0.006825  -0.016313  -0.000024   0.005101
     8  C   -0.039953   4.878295   0.363008   0.385384  -0.040221  -0.034469
     9  H    0.006825   0.363008   0.591205  -0.040221  -0.004382   0.005038
    10  C   -0.016313   0.385384  -0.040221   4.878295   0.363008   0.652100
    11  H   -0.000024  -0.040221  -0.004382   0.363008   0.591205  -0.056947
    12  C    0.005101  -0.034469   0.005038   0.652100  -0.056947   4.950277
    13  H    0.006335  -0.016313  -0.000024  -0.039953   0.006825   0.351451
    14  C    0.000077   0.004333  -0.000111  -0.027482  -0.005662   0.380505
    15  H    0.000009  -0.000114   0.000002   0.001523   0.000253  -0.043587
    16  C   -0.000004   0.000226  -0.000005  -0.010284   0.004161  -0.040201
    17  H    0.000000   0.000003   0.000000   0.000245  -0.000122   0.005018
    18  H    0.000002  -0.000167   0.000004   0.004187   0.000960  -0.008487
             13         14         15         16         17         18
     1  C   -0.000004   0.000000   0.000000   0.000000   0.000000   0.000000
     2  H    0.000000   0.000000   0.000000   0.000000   0.000000   0.000000
     3  H    0.000002   0.000000   0.000000   0.000000   0.000000   0.000000
     4  C    0.000077  -0.000005   0.000000   0.000000   0.000000   0.000000
     5  H    0.000009   0.000000   0.000000   0.000000   0.000000   0.000000
     6  C    0.005101   0.000373   0.000007   0.000005   0.000000  -0.000006
     7  H    0.006335   0.000077   0.000009  -0.000004   0.000000   0.000002
     8  C   -0.016313   0.004333  -0.000114   0.000226   0.000003  -0.000167
     9  H   -0.000024  -0.000111   0.000002  -0.000005   0.000000   0.000004
    10  C   -0.039953  -0.027482   0.001523  -0.010284   0.000245   0.004187
    11  H    0.006825  -0.005662   0.000253   0.004161  -0.000122   0.000960
    12  C    0.351451   0.380505  -0.043587  -0.040201   0.005018  -0.008487
    13  H    0.587616  -0.041804   0.000532   0.002311  -0.000164   0.000284
    14  C   -0.041804   4.846163   0.364559   0.664806  -0.029640  -0.036601
    15  H    0.000532   0.364559   0.585831  -0.048512  -0.006366   0.006105
    16  C    0.002311   0.664806  -0.048512   5.009189   0.362814   0.371722
    17  H   -0.000164  -0.029640  -0.006366   0.362814   0.567170  -0.039976
    18  H    0.000284  -0.036601   0.006105   0.371722  -0.039976   0.553981
 Mulliken atomic charges:
              1
     1  C   -0.316228
     2  H    0.141018
     3  H    0.147992
     4  C   -0.119512
     5  H    0.139759
     6  C   -0.146463
     7  H    0.137717
     8  C   -0.120301
     9  H    0.136017
    10  C   -0.120301
    11  H    0.136017
    12  C   -0.146463
    13  H    0.137717
    14  C   -0.119512
    15  H    0.139759
    16  C   -0.316228
    17  H    0.141018
    18  H    0.147992
 Sum of Mulliken atomic charges =   0.00000
 Mulliken charges with hydrogens summed into heavy atoms:
              1
     1  C   -0.027218
     4  C    0.020247
     6  C   -0.008746
     8  C    0.015717
    10  C    0.015717
    12  C   -0.008746
    14  C    0.020247
    16  C   -0.027218
 Sum of Mulliken charges with hydrogens summed into heavy atoms =   0.00000
 Electronic spatial extent (au):  <R**2>=           1676.0848
 Charge=              0.0000 electrons
 Dipole moment (field-independent basis, Debye):
    X=              0.0000    Y=              0.0000    Z=             -0.0837  Tot=              0.0837
 Quadrupole moment (field-independent basis, Debye-Ang):
   XX=            -49.6051   YY=            -44.9241   ZZ=            -46.8727
   XY=             -0.7283   XZ=              0.0000   YZ=              0.0000
 Traceless Quadrupole moment (field-independent basis, Debye-Ang):
   XX=             -2.4712   YY=              2.2099   ZZ=              0.2612
   XY=             -0.7283   XZ=              0.0000   YZ=              0.0000
 Octapole moment (field-independent basis, Debye-Ang**2):
  XXX=              0.0000  YYY=              0.0000  ZZZ=              1.5223  XYY=              0.0000
  XXY=              0.0000  XXZ=              1.9460  XZZ=              0.0000  YZZ=              0.0000
  YYZ=             -0.9480  XYZ=              8.1599
 Hexadecapole moment (field-independent basis, Debye-Ang**3):
 XXXX=           -156.0365 YYYY=          -1844.4482 ZZZZ=           -150.0553 XXXY=           -148.2990
 XXXZ=              0.0000 YYYX=           -147.8236 YYYZ=              0.0000 ZZZX=              0.0000
 ZZZY=              0.0000 XXYY=           -354.9445 XXZZ=            -53.6415 YYZZ=           -378.3842
 XXYZ=              0.0000 YYXZ=              0.0000 ZZXY=            -56.4659
 N-N= 3.037329775772D+02 E-N=-1.326071905783D+03  KE= 3.075961968109D+02
 Symmetry A    KE= 1.548936092848D+02
 Symmetry B    KE= 1.527025875262D+02
 Calling FoFJK, ICntrl=      2127 FMM=F ISym2X=1 I1Cent= 0 IOpClX= 0 NMat=1 NMatS=1 NMatT=0.
 ***** Axes restored to original set *****
 -------------------------------------------------------------------
 Center     Atomic                   Forces (Hartrees/Bohr)
 Number     Number              X              Y              Z
 -------------------------------------------------------------------
      1        6           0.027659934    0.020702563   -0.015566583
      2        1           0.000258699   -0.015222465    0.002707169
      3        1          -0.012541037    0.002148168    0.005518741
      4        6          -0.038371580    0.024184197    0.014318688
      5        1           0.012191701   -0.003727116   -0.010332733
      6        6           0.011202124   -0.040259807    0.033825657
      7        1           0.003040254    0.001230921   -0.013941102
      8        6          -0.006953638    0.037636302   -0.037933635
      9        1           0.002657633   -0.010641890    0.021403800
     10        6           0.006953638   -0.037636302   -0.037933635
     11        1          -0.002657633    0.010641890    0.021403800
     12        6          -0.011202124    0.040259807    0.033825657
     13        1          -0.003040254   -0.001230921   -0.013941102
     14        6           0.038371580   -0.024184197    0.014318688
     15        1          -0.012191701    0.003727116   -0.010332733
     16        6          -0.027659934   -0.020702563   -0.015566583
     17        1          -0.000258699    0.015222465    0.002707169
     18        1           0.012541037   -0.002148168    0.005518741
 -------------------------------------------------------------------
 Cartesian Forces:  Max     0.040259807 RMS     0.020163126

 GradGradGradGradGradGradGradGradGradGradGradGradGradGradGradGradGradGrad
 Berny optimization.
 Internal  Forces:  Max     0.029852945 RMS     0.011355842
 Search for a local minimum.
 Step number   1 out of a maximum of   79
 All quantities printed in internal units (Hartrees-Bohrs-Radians)
 Mixed Optimization -- RFO/linear search
 Second derivative matrix not updated -- first step.
 ITU=  0
     Eigenvalues ---    0.00310   0.00310   0.00499   0.01500   0.01500
     Eigenvalues ---    0.01500   0.01500   0.01605   0.01605   0.02683
     Eigenvalues ---    0.02683   0.02683   0.02683   0.02683   0.02683
     Eigenvalues ---    0.16000   0.16000   0.16000   0.16000   0.16000
     Eigenvalues ---    0.16000   0.16000   0.16000   0.16000   0.16000
     Eigenvalues ---    0.22000   0.22000   0.22000   0.22000   0.22000
     Eigenvalues ---    0.22000   0.29014   0.29014   0.30350   0.37600
     Eigenvalues ---    0.37600   0.37600   0.37600   0.37600   0.37600
     Eigenvalues ---    0.37719   0.37719   0.39316   0.39316   0.53947
     Eigenvalues ---    0.53947   0.53947   0.53947
 RFO step:  Lambda=-2.90476287D-02 EMin= 3.09906330D-03
 Linear search not attempted -- first point.
 Maximum step size (   0.300) exceeded in Quadratic search.
    -- Step size scaled by   0.977
 Iteration  1 RMS(Cart)=  0.17308183 RMS(Int)=  0.00578037
 Iteration  2 RMS(Cart)=  0.01278200 RMS(Int)=  0.00001522
 Iteration  3 RMS(Cart)=  0.00002135 RMS(Int)=  0.00000738
 Iteration  4 RMS(Cart)=  0.00000000 RMS(Int)=  0.00000738
 ClnCor:  largest displacement from symmetrization is 1.76D-08 for atom    10.
 Variable       Old X    -DE/DX   Delta X   Delta X   Delta X     New X
                                 (Linear)    (Quad)   (Total)
    R1        2.01475   0.01510   0.00000   0.03632   0.03632   2.05107
    R2        2.01652   0.01347   0.00000   0.03250   0.03250   2.04902
    R3        2.56079  -0.01803   0.00000  -0.03098  -0.03098   2.52982
    R4        2.01652   0.01585   0.00000   0.03824   0.03824   2.05475
    R5        2.89974  -0.02945   0.00000  -0.09014  -0.09014   2.80960
    R6        2.01652   0.01254   0.00000   0.03024   0.03024   2.04675
    R7        2.56079  -0.00839   0.00000  -0.01442  -0.01442   2.54637
    R8        1.99194   0.02402   0.00000   0.05558   0.05558   2.04752
    R9        2.87270  -0.01599   0.00000  -0.04698  -0.04698   2.82572
   R10        1.99194   0.02402   0.00000   0.05558   0.05558   2.04752
   R11        2.56079  -0.00839   0.00000  -0.01442  -0.01442   2.54637
   R12        2.01652   0.01254   0.00000   0.03024   0.03024   2.04675
   R13        2.89974  -0.02945   0.00000  -0.09014  -0.09014   2.80960
   R14        2.01652   0.01585   0.00000   0.03824   0.03824   2.05475
   R15        2.56079  -0.01803   0.00000  -0.03098  -0.03098   2.52982
   R16        2.01475   0.01510   0.00000   0.03632   0.03632   2.05107
   R17        2.01652   0.01347   0.00000   0.03250   0.03250   2.04902
    A1        2.08882  -0.00414   0.00000  -0.02140  -0.02140   2.06742
    A2        2.09939   0.00212   0.00000   0.01096   0.01096   2.11035
    A3        2.09498   0.00202   0.00000   0.01044   0.01044   2.10542
    A4        2.09498  -0.00196   0.00000  -0.00428  -0.00428   2.09070
    A5        2.09939   0.00942   0.00000   0.03697   0.03697   2.13635
    A6        2.08882  -0.00746   0.00000  -0.03269  -0.03269   2.05613
    A7        2.08882  -0.00914   0.00000  -0.04359  -0.04359   2.04524
    A8        2.09939   0.00589   0.00000   0.02312   0.02312   2.12251
    A9        2.09498   0.00325   0.00000   0.02047   0.02047   2.11544
   A10        2.09888  -0.01413   0.00000  -0.05442  -0.05442   2.04445
   A11        2.10813   0.02985   0.00000   0.11711   0.11711   2.22525
   A12        2.07618  -0.01573   0.00000  -0.06269  -0.06269   2.01349
   A13        2.07618  -0.01573   0.00000  -0.06269  -0.06269   2.01349
   A14        2.10813   0.02985   0.00000   0.11711   0.11711   2.22525
   A15        2.09888  -0.01413   0.00000  -0.05442  -0.05442   2.04445
   A16        2.09498   0.00325   0.00000   0.02047   0.02047   2.11544
   A17        2.09939   0.00589   0.00000   0.02312   0.02312   2.12251
   A18        2.08882  -0.00914   0.00000  -0.04359  -0.04359   2.04524
   A19        2.08882  -0.00746   0.00000  -0.03269  -0.03269   2.05613
   A20        2.09939   0.00942   0.00000   0.03697   0.03697   2.13635
   A21        2.09498  -0.00196   0.00000  -0.00428  -0.00428   2.09070
   A22        2.09939   0.00212   0.00000   0.01096   0.01096   2.11035
   A23        2.09498   0.00202   0.00000   0.01044   0.01044   2.10542
   A24        2.08882  -0.00414   0.00000  -0.02140  -0.02140   2.06742
    D1        0.00000   0.00096   0.00000   0.01659   0.01658   0.01658
    D2        3.14159   0.00109   0.00000   0.01928   0.01929  -3.12230
    D3        3.14159   0.00100   0.00000   0.01725   0.01724  -3.12436
    D4        0.00000   0.00112   0.00000   0.01995   0.01996   0.01996
    D5       -2.09440  -0.00196   0.00000  -0.05926  -0.05926  -2.15365
    D6        1.04720  -0.00201   0.00000  -0.06051  -0.06048   0.98671
    D7        1.04720  -0.00184   0.00000  -0.05657  -0.05659   0.99061
    D8       -2.09440  -0.00189   0.00000  -0.05782  -0.05782  -2.15221
    D9        0.00000   0.00091   0.00000   0.01584   0.01585   0.01585
   D10        3.14159   0.00100   0.00000   0.01777   0.01778  -3.12381
   D11        3.14159   0.00085   0.00000   0.01459   0.01458  -3.12702
   D12        0.00000   0.00094   0.00000   0.01652   0.01651   0.01651
   D13        3.14159   0.00000   0.00000  -0.00009  -0.00009   3.14150
   D14        0.00000  -0.00009   0.00000  -0.00200  -0.00199  -0.00199
   D15        0.00000   0.00008   0.00000   0.00181   0.00181   0.00181
   D16        3.14159   0.00000   0.00000  -0.00009  -0.00009   3.14150
   D17        0.00000   0.00094   0.00000   0.01652   0.01651   0.01651
   D18       -3.14159   0.00100   0.00000   0.01777   0.01778  -3.12381
   D19        3.14159   0.00085   0.00000   0.01459   0.01458  -3.12702
   D20        0.00000   0.00091   0.00000   0.01584   0.01585   0.01585
   D21       -2.09440  -0.00189   0.00000  -0.05782  -0.05782  -2.15221
   D22        1.04720  -0.00201   0.00000  -0.06051  -0.06048   0.98671
   D23        1.04720  -0.00184   0.00000  -0.05657  -0.05659   0.99061
   D24       -2.09440  -0.00196   0.00000  -0.05926  -0.05926  -2.15365
   D25        3.14159   0.00109   0.00000   0.01928   0.01929  -3.12230
   D26        0.00000   0.00112   0.00000   0.01995   0.01996   0.01996
   D27        0.00000   0.00096   0.00000   0.01659   0.01658   0.01658
   D28        3.14159   0.00100   0.00000   0.01725   0.01724  -3.12436
         Item               Value     Threshold  Converged?
 Maximum Force            0.029853     0.000450     NO 
 RMS     Force            0.011356     0.000300     NO 
 Maximum Displacement     0.451100     0.001800     NO 
 RMS     Displacement     0.171183     0.001200     NO 
 Predicted change in Energy=-1.628669D-02
 GradGradGradGradGradGradGradGradGradGradGradGradGradGradGradGradGradGrad

                          Input orientation:                          
 ---------------------------------------------------------------------
 Center     Atomic      Atomic             Coordinates (Angstroms)
 Number     Number       Type             X           Y           Z
 ---------------------------------------------------------------------
      1          6           0       -0.410330   -3.789513    0.290518
      2          1           0       -0.229207   -4.853903    0.401513
      3          1           0       -1.298258   -3.366226    0.746702
      4          6           0        0.440423   -3.014764   -0.393701
      5          1           0        1.318226   -3.456401   -0.859215
      6          6           0        0.237515   -1.549803   -0.546083
      7          1           0        0.191793   -1.158927   -1.555154
      8          6           0        0.113761   -0.738949    0.522984
      9          1           0        0.183510   -1.197818    1.502037
     10          6           0       -0.113761    0.738949    0.522984
     11          1           0       -0.183510    1.197818    1.502037
     12          6           0       -0.237515    1.549803   -0.546083
     13          1           0       -0.191793    1.158927   -1.555154
     14          6           0       -0.440423    3.014764   -0.393701
     15          1           0       -1.318226    3.456401   -0.859215
     16          6           0        0.410330    3.789513    0.290518
     17          1           0        0.229207    4.853903    0.401513
     18          1           0        1.298258    3.366226    0.746702
 ---------------------------------------------------------------------
                    Distance matrix (angstroms):
                    1          2          3          4          5
     1  C    0.000000
     2  H    1.085381   0.000000
     3  H    1.084293   1.864191   0.000000
     4  C    1.338721   2.112630   2.108805   0.000000
     5  H    2.102559   2.436595   3.071333   1.087329   0.000000
     6  C    2.477076   3.468840   2.707266   1.486776   2.213843
     7  H    3.269409   4.202218   3.520080   2.203388   2.651710
     8  C    3.103974   4.131009   2.991059   2.475147   3.278072
     9  H    2.921866   3.840370   2.732793   2.638393   3.458943
    10  C    4.544112   5.595362   4.278498   3.903561   4.643492
    11  H    5.137382   6.151144   4.758539   4.661433   5.430697
    12  C    5.407223   6.473442   5.192669   4.617151   5.251709
    13  H    5.285955   6.323296   5.196135   4.378169   4.905685
    14  C    6.838658   7.911567   6.538611   6.093529   6.722017
    15  H    7.392525   8.475644   7.009109   6.722017   7.398493
    16  C    7.623327   8.667754   7.371023   6.838658   7.392525
    17  H    8.667754   9.718624   8.367964   7.911567   8.475644
    18  H    7.371023   8.367964   7.215803   6.538611   7.009109
                    6          7          8          9         10
     6  C    0.000000
     7  H    1.083096   0.000000
     8  C    1.347481   2.121586   0.000000
     9  H    2.078847   3.057449   1.083499   0.000000
    10  C    2.550428   2.830893   1.495308   2.190429   0.000000
    11  H    3.452749   3.878339   2.190429   2.423588   1.083499
    12  C    3.135794   2.922285   2.550428   3.452749   1.347481
    13  H    2.922285   2.349381   2.830893   3.878339   2.121586
    14  C    4.617151   4.378169   3.903561   4.661433   2.475147
    15  H    5.251709   4.905685   4.643492   5.430697   3.278072
    16  C    5.407223   5.285955   4.544112   5.137382   3.103974
    17  H    6.473442   6.323296   5.595362   6.151144   4.131009
    18  H    5.192669   5.196135   4.278498   4.758539   2.991059
                   11         12         13         14         15
    11  H    0.000000
    12  C    2.078847   0.000000
    13  H    3.057449   1.083096   0.000000
    14  C    2.638393   1.486776   2.203388   0.000000
    15  H    3.458943   2.213843   2.651710   1.087329   0.000000
    16  C    2.921866   2.477076   3.269409   1.338721   2.102559
    17  H    3.840370   3.468840   4.202218   2.112630   2.436595
    18  H    2.732793   2.707266   3.520080   2.108805   3.071333
                   16         17         18
    16  C    0.000000
    17  H    1.085381   0.000000
    18  H    1.084293   1.864191   0.000000
 Stoichiometry    C8H10
 Framework group  C2[X(C8H10)]
 Deg. of freedom    25
 Full point group                 C2      NOp   2
 Largest Abelian subgroup         C2      NOp   2
 Largest concise Abelian subgroup C2      NOp   2
                         Standard orientation:                         
 ---------------------------------------------------------------------
 Center     Atomic      Atomic             Coordinates (Angstroms)
 Number     Number       Type             X           Y           Z
 ---------------------------------------------------------------------
      1          6           0       -0.161809   -3.808227    0.308512
      2          1           0        0.088486   -4.858506    0.419507
      3          1           0       -1.075500   -3.443872    0.764696
      4          6           0        0.636496   -2.979538   -0.375708
      5          1           0        1.541283   -3.362866   -0.841221
      6          6           0        0.338287   -1.530968   -0.528090
      7          1           0        0.267119   -1.143916   -1.537160
      8          6           0        0.161809   -0.729935    0.540978
      9          1           0        0.261395   -1.183265    1.520030
     10          6           0       -0.161809    0.729935    0.540978
     11          1           0       -0.261395    1.183265    1.520030
     12          6           0       -0.338287    1.530968   -0.528090
     13          1           0       -0.267119    1.143916   -1.537160
     14          6           0       -0.636496    2.979538   -0.375708
     15          1           0       -1.541283    3.362866   -0.841221
     16          6           0        0.161809    3.808227    0.308512
     17          1           0       -0.088486    4.858506    0.419507
     18          1           0        1.075500    3.443872    0.764696
 ---------------------------------------------------------------------
 Rotational constants (GHZ):     10.2623527      0.6728972      0.6603390
 Standard basis: 6-31G(d) (6D, 7F)
 There are    70 symmetry adapted basis functions of A   symmetry.
 There are    70 symmetry adapted basis functions of B   symmetry.
 Integral buffers will be    131072 words long.
 Raffenetti 2 integral format.
 Two-electron integral symmetry is turned on.
   140 basis functions,   264 primitive gaussians,   140 cartesian basis functions
    29 alpha electrons       29 beta electrons
       nuclear repulsion energy       303.2917600921 Hartrees.
 NAtoms=   18 NActive=   18 NUniq=    9 SFac= 4.00D+00 NAtFMM=   60 NAOKFM=F Big=F
 One-electron integrals computed using PRISM.
 NBasis=   140 RedAO= T  NBF=    70    70
 NBsUse=   140 1.00D-06 NBFU=    70    70
 Initial guess read from the read-write file.
 B after Tr=     0.000000    0.000000    0.000000
         Rot=    1.000000    0.000000    0.000000    0.000000 Ang=   0.00 deg.
 Initial guess orbital symmetries:
       Occupied  (B) (A) (A) (B) (A) (B) (B) (A) (A) (B) (A) (B)
                 (A) (B) (A) (B) (A) (B) (A) (A) (B) (A) (B) (B)
                 (A) (B) (A) (B) (A)
       Virtual   (B) (A) (B) (A) (A) (B) (A) (A) (B) (A) (B) (B)
                 (A) (B) (B) (A) (A) (B) (A) (B) (B) (A) (B) (B)
                 (A) (A) (A) (B) (B) (A) (A) (B) (A) (B) (B) (A)
                 (B) (A) (A) (B) (A) (A) (B) (B) (A) (B) (B) (A)
                 (A) (B) (A) (A) (B) (B) (B) (A) (A) (B) (A) (B)
                 (B) (A) (B) (B) (A) (B) (A) (B) (A) (B) (A) (A)
                 (B) (B) (A) (A) (B) (A) (A) (B) (A) (B) (A) (B)
                 (B) (A) (B) (A) (B) (A) (B) (A) (B) (A) (A) (B)
                 (A) (B) (A) (B) (A) (B) (B) (A) (A) (B) (B) (A)
                 (B) (A) (B)
 Harris functional with IExCor=  402 diagonalized for initial guess.
 ExpMin= 1.61D-01 ExpMax= 3.05D+03 ExpMxC= 4.57D+02 IAcc=1 IRadAn=         1 AccDes= 0.00D+00
 HarFok:  IExCor=  402 AccDes= 0.00D+00 IRadAn=         1 IDoV= 1
 ScaDFX=  1.000000  1.000000  1.000000  1.000000
 FoFCou: FMM=F IPFlag=           0 FMFlag=      100000 FMFlg1=           0
         NFxFlg=           0 DoJE=T BraDBF=F KetDBF=T FulRan=T
         Omega=  0.000000  0.000000  1.000000  0.000000  0.000000 ICntrl=     500 IOpCl=  0
         NMat0=    1 NMatS0=    1 NMatT0=    0 NMatD0=    1 NMtDS0=    0 NMtDT0=    0
         I1Cent=           4 NGrid=           0.
 Petite list used in FoFCou.
 Requested convergence on RMS density matrix=1.00D-08 within 128 cycles.
 Requested convergence on MAX density matrix=1.00D-06.
 Requested convergence on             energy=1.00D-06.
 No special actions if energy rises.
 Integral accuracy reduced to 1.0D-05 until final iterations.
 Initial convergence to 1.0D-05 achieved.  Increase integral accuracy.
 SCF Done:  E(RB3LYP) =  -310.779764192     A.U. after   14 cycles
             Convg  =    0.5189D-08             -V/T =  2.0103
 Calling FoFJK, ICntrl=      2127 FMM=F ISym2X=1 I1Cent= 0 IOpClX= 0 NMat=1 NMatS=1 NMatT=0.
 ***** Axes restored to original set *****
 -------------------------------------------------------------------
 Center     Atomic                   Forces (Hartrees/Bohr)
 Number     Number              X              Y              Z
 -------------------------------------------------------------------
      1        6           0.006316436   -0.000101612   -0.001508196
      2        1          -0.001420207   -0.001161222    0.001515019
      3        1          -0.001950702   -0.001335158    0.000777125
      4        6          -0.007788773    0.008997310    0.001228377
      5        1           0.000562963   -0.000869967   -0.003964677
      6        6           0.003525894   -0.009652692    0.008692546
      7        1           0.002820996    0.002900673   -0.004374922
      8        6          -0.004946818    0.019554232   -0.005785767
      9        1           0.000604647   -0.000462876    0.003420495
     10        6           0.004946818   -0.019554232   -0.005785767
     11        1          -0.000604647    0.000462876    0.003420495
     12        6          -0.003525894    0.009652692    0.008692546
     13        1          -0.002820996   -0.002900673   -0.004374922
     14        6           0.007788773   -0.008997310    0.001228377
     15        1          -0.000562963    0.000869967   -0.003964677
     16        6          -0.006316436    0.000101612   -0.001508196
     17        1           0.001420207    0.001161222    0.001515019
     18        1           0.001950702    0.001335158    0.000777125
 -------------------------------------------------------------------
 Cartesian Forces:  Max     0.019554232 RMS     0.005719444

 GradGradGradGradGradGradGradGradGradGradGradGradGradGradGradGradGradGrad
 Berny optimization.
 Using GEDIIS/GDIIS optimizer.
 Internal  Forces:  Max     0.018007006 RMS     0.003438911
 Search for a local minimum.
 Step number   2 out of a maximum of   79
 All quantities printed in internal units (Hartrees-Bohrs-Radians)
 Mixed Optimization -- RFO/linear search
 Update second derivatives using D2CorX and points    1    2
 DE= -1.59D-02 DEPred=-1.63D-02 R= 9.76D-01
 SS=  1.41D+00  RLast= 3.49D-01 DXNew= 5.0454D-01 1.0474D+00
 Trust test= 9.76D-01 RLast= 3.49D-01 DXMaxT set to 5.05D-01
 ITU=  1  0
 Use linear search instead of GDIIS.
     Eigenvalues ---    0.00305   0.00310   0.00499   0.01519   0.01519
     Eigenvalues ---    0.01543   0.01543   0.01608   0.01608   0.02681
     Eigenvalues ---    0.02683   0.02683   0.02683   0.02683   0.02688
     Eigenvalues ---    0.15468   0.16000   0.16000   0.16000   0.16000
     Eigenvalues ---    0.16000   0.16000   0.16000   0.16000   0.16197
     Eigenvalues ---    0.19000   0.22000   0.22000   0.22000   0.22000
     Eigenvalues ---    0.25611   0.26699   0.29014   0.31695   0.37115
     Eigenvalues ---    0.37600   0.37600   0.37600   0.37600   0.37659
     Eigenvalues ---    0.37719   0.38366   0.39316   0.40211   0.53924
     Eigenvalues ---    0.53947   0.53947   0.54777
 RFO step:  Lambda=-8.79282091D-03 EMin= 3.05193851D-03
 Quartic linear search produced a step of  0.26028.
 Iteration  1 RMS(Cart)=  0.13277987 RMS(Int)=  0.02131950
 Iteration  2 RMS(Cart)=  0.04312228 RMS(Int)=  0.00095949
 Iteration  3 RMS(Cart)=  0.00130681 RMS(Int)=  0.00002014
 Iteration  4 RMS(Cart)=  0.00000099 RMS(Int)=  0.00002013
 ClnCor:  largest displacement from symmetrization is 2.00D-08 for atom    17.
 Variable       Old X    -DE/DX   Delta X   Delta X   Delta X     New X
                                 (Linear)    (Quad)   (Total)
    R1        2.05107   0.00106   0.00945  -0.00041   0.00904   2.06011
    R2        2.04902   0.00140   0.00846   0.00109   0.00954   2.05856
    R3        2.52982   0.00003  -0.00806   0.00339  -0.00467   2.52514
    R4        2.05475   0.00251   0.00995   0.00397   0.01393   2.06868
    R5        2.80960  -0.00623  -0.02346  -0.01642  -0.03988   2.76972
    R6        2.04675   0.00500   0.00787   0.01269   0.02056   2.06731
    R7        2.54637  -0.00095  -0.00375  -0.00056  -0.00432   2.54205
    R8        2.04752   0.00333   0.01447   0.00430   0.01876   2.06628
    R9        2.82572  -0.01801  -0.01223  -0.06538  -0.07761   2.74812
   R10        2.04752   0.00333   0.01447   0.00430   0.01876   2.06628
   R11        2.54637  -0.00095  -0.00375  -0.00056  -0.00432   2.54205
   R12        2.04675   0.00500   0.00787   0.01269   0.02056   2.06731
   R13        2.80960  -0.00623  -0.02346  -0.01642  -0.03988   2.76972
   R14        2.05475   0.00251   0.00995   0.00397   0.01393   2.06868
   R15        2.52982   0.00003  -0.00806   0.00339  -0.00467   2.52514
   R16        2.05107   0.00106   0.00945  -0.00041   0.00904   2.06011
   R17        2.04902   0.00140   0.00846   0.00109   0.00954   2.05856
    A1        2.06742  -0.00278  -0.00557  -0.01823  -0.02381   2.04362
    A2        2.11035   0.00153   0.00285   0.01011   0.01295   2.12330
    A3        2.10542   0.00125   0.00272   0.00812   0.01083   2.11624
    A4        2.09070  -0.00243  -0.00111  -0.01097  -0.01212   2.07858
    A5        2.13635   0.00635   0.00962   0.03030   0.03988   2.17624
    A6        2.05613  -0.00392  -0.00851  -0.01930  -0.02784   2.02829
    A7        2.04524  -0.00243  -0.01135  -0.00772  -0.01909   2.02614
    A8        2.12251   0.00632   0.00602   0.03142   0.03742   2.15992
    A9        2.11544  -0.00389   0.00533  -0.02369  -0.01838   2.09706
   A10        2.04445   0.00184  -0.01417   0.01679   0.00262   2.04707
   A11        2.22525  -0.00170   0.03048  -0.01998   0.01050   2.23574
   A12        2.01349  -0.00014  -0.01632   0.00320  -0.01312   2.00036
   A13        2.01349  -0.00014  -0.01632   0.00320  -0.01312   2.00036
   A14        2.22525  -0.00170   0.03048  -0.01998   0.01050   2.23574
   A15        2.04445   0.00184  -0.01417   0.01679   0.00262   2.04707
   A16        2.11544  -0.00389   0.00533  -0.02369  -0.01838   2.09706
   A17        2.12251   0.00632   0.00602   0.03142   0.03742   2.15992
   A18        2.04524  -0.00243  -0.01135  -0.00772  -0.01909   2.02614
   A19        2.05613  -0.00392  -0.00851  -0.01930  -0.02784   2.02829
   A20        2.13635   0.00635   0.00962   0.03030   0.03988   2.17624
   A21        2.09070  -0.00243  -0.00111  -0.01097  -0.01212   2.07858
   A22        2.11035   0.00153   0.00285   0.01011   0.01295   2.12330
   A23        2.10542   0.00125   0.00272   0.00812   0.01083   2.11624
   A24        2.06742  -0.00278  -0.00557  -0.01823  -0.02381   2.04362
    D1        0.01658   0.00047   0.00431   0.01922   0.02356   0.04014
    D2       -3.12230   0.00013   0.00502   0.00222   0.00721  -3.11509
    D3       -3.12436   0.00069   0.00449   0.02676   0.03128  -3.09308
    D4        0.01996   0.00035   0.00519   0.00976   0.01492   0.03488
    D5       -2.15365  -0.00208  -0.01542  -0.23441  -0.24987  -2.40352
    D6        0.98671  -0.00182  -0.01574  -0.22121  -0.23698   0.74974
    D7        0.99061  -0.00242  -0.01473  -0.25110  -0.26581   0.72479
    D8       -2.15221  -0.00215  -0.01505  -0.23791  -0.25292  -2.40513
    D9        0.01585   0.00041   0.00413   0.01344   0.01759   0.03344
   D10       -3.12381   0.00024   0.00463   0.00541   0.01003  -3.11378
   D11       -3.12702   0.00068   0.00379   0.02718   0.03098  -3.09604
   D12        0.01651   0.00052   0.00430   0.01915   0.02343   0.03993
   D13        3.14150   0.00015  -0.00002   0.01295   0.01292  -3.12876
   D14       -0.00199   0.00031  -0.00052   0.02087   0.02032   0.01833
   D15        0.00181  -0.00002   0.00047   0.00503   0.00553   0.00733
   D16        3.14150   0.00015  -0.00002   0.01295   0.01292  -3.12876
   D17        0.01651   0.00052   0.00430   0.01915   0.02343   0.03993
   D18       -3.12381   0.00024   0.00463   0.00541   0.01003  -3.11378
   D19       -3.12702   0.00068   0.00379   0.02718   0.03098  -3.09604
   D20        0.01585   0.00041   0.00413   0.01344   0.01759   0.03344
   D21       -2.15221  -0.00215  -0.01505  -0.23791  -0.25292  -2.40513
   D22        0.98671  -0.00182  -0.01574  -0.22121  -0.23698   0.74974
   D23        0.99061  -0.00242  -0.01473  -0.25110  -0.26581   0.72479
   D24       -2.15365  -0.00208  -0.01542  -0.23441  -0.24987  -2.40352
   D25       -3.12230   0.00013   0.00502   0.00222   0.00721  -3.11509
   D26        0.01996   0.00035   0.00519   0.00976   0.01492   0.03488
   D27        0.01658   0.00047   0.00431   0.01922   0.02356   0.04014
   D28       -3.12436   0.00069   0.00449   0.02676   0.03128  -3.09308
         Item               Value     Threshold  Converged?
 Maximum Force            0.018007     0.000450     NO 
 RMS     Force            0.003439     0.000300     NO 
 Maximum Displacement     0.544887     0.001800     NO 
 RMS     Displacement     0.171442     0.001200     NO 
 Predicted change in Energy=-5.603937D-03
 GradGradGradGradGradGradGradGradGradGradGradGradGradGradGradGradGradGrad

                          Input orientation:                          
 ---------------------------------------------------------------------
 Center     Atomic      Atomic             Coordinates (Angstroms)
 Number     Number       Type             X           Y           Z
 ---------------------------------------------------------------------
      1          6           0       -0.340548   -3.771503    0.383548
      2          1           0       -0.172327   -4.847034    0.441799
      3          1           0       -1.106891   -3.353245    1.035044
      4          6           0        0.353942   -2.997502   -0.455598
      5          1           0        1.083592   -3.461254   -1.127094
      6          6           0        0.205126   -1.543589   -0.566011
      7          1           0        0.201005   -1.136117   -1.581260
      8          6           0        0.091292   -0.721366    0.492547
      9          1           0        0.144850   -1.173607    1.486627
     10          6           0       -0.091292    0.721366    0.492547
     11          1           0       -0.144850    1.173607    1.486627
     12          6           0       -0.205126    1.543589   -0.566011
     13          1           0       -0.201005    1.136117   -1.581260
     14          6           0       -0.353942    2.997502   -0.455598
     15          1           0       -1.083592    3.461254   -1.127094
     16          6           0        0.340548    3.771503    0.383548
     17          1           0        0.172327    4.847034    0.441799
     18          1           0        1.106891    3.353245    1.035044
 ---------------------------------------------------------------------
                    Distance matrix (angstroms):
                    1          2          3          4          5
     1  C    0.000000
     2  H    1.090165   0.000000
     3  H    1.089344   1.859235   0.000000
     4  C    1.336248   2.122040   2.117215   0.000000
     5  H    2.099159   2.441136   3.079728   1.094698   0.000000
     6  C    2.482544   3.474321   2.749477   1.465673   2.182649
     7  H    3.331517   4.243000   3.670326   2.180655   2.528139
     8  C    3.082483   4.134393   2.942232   2.479668   3.333899
     9  H    2.863819   3.832275   2.553744   2.672555   3.598070
    10  C    4.501098   5.569221   4.234171   3.863572   4.636583
    11  H    5.070424   6.110691   4.649929   4.628086   5.461003
    12  C    5.400945   6.469685   5.230253   4.576708   5.198468
    13  H    5.288164   6.315987   5.274472   4.319941   4.795027
    14  C    6.820834   7.897788   6.566653   6.036652   6.650785
    15  H    7.426098   8.504087   7.149321   6.650785   7.253814
    16  C    7.573694   8.633981   7.299423   6.820834   7.426098
    17  H    8.633981   9.700194   8.320632   7.897788   8.504087
    18  H    7.299423   8.320632   7.062425   6.566653   7.149321
                    6          7          8          9         10
     6  C    0.000000
     7  H    1.093975   0.000000
     8  C    1.345196   2.117718   0.000000
     9  H    2.086587   3.068630   1.093429   0.000000
    10  C    2.517624   2.799350   1.454240   2.152878   0.000000
    11  H    3.423297   3.855694   2.152878   2.365024   1.093429
    12  C    3.114318   2.894218   2.517624   3.423297   1.345196
    13  H    2.894218   2.307523   2.799350   3.855694   2.117718
    14  C    4.576708   4.319941   3.863572   4.628086   2.479668
    15  H    5.198468   4.795027   4.636583   5.461003   3.333899
    16  C    5.400945   5.288164   4.501098   5.070424   3.082483
    17  H    6.469685   6.315987   5.569221   6.110691   4.134393
    18  H    5.230253   5.274472   4.234171   4.649929   2.942232
                   11         12         13         14         15
    11  H    0.000000
    12  C    2.086587   0.000000
    13  H    3.068630   1.093975   0.000000
    14  C    2.672555   1.465673   2.180655   0.000000
    15  H    3.598070   2.182649   2.528139   1.094698   0.000000
    16  C    2.863819   2.482544   3.331517   1.336248   2.099159
    17  H    3.832275   3.474321   4.243000   2.122040   2.441136
    18  H    2.553744   2.749477   3.670326   2.117215   3.079728
                   16         17         18
    16  C    0.000000
    17  H    1.090165   0.000000
    18  H    1.089344   1.859235   0.000000
 Stoichiometry    C8H10
 Framework group  C2[X(C8H10)]
 Deg. of freedom    25
 Full point group                 C2      NOp   2
 Largest Abelian subgroup         C2      NOp   2
 Largest concise Abelian subgroup C2      NOp   2
                         Standard orientation:                         
 ---------------------------------------------------------------------
 Center     Atomic      Atomic             Coordinates (Angstroms)
 Number     Number       Type             X           Y           Z
 ---------------------------------------------------------------------
      1          6           0       -0.131110   -3.784577    0.404857
      2          1           0        0.096430   -4.849138    0.463109
      3          1           0       -0.919445   -3.409411    1.056353
      4          6           0        0.519439   -2.973293   -0.434288
      5          1           0        1.273658   -3.395917   -1.105785
      6          6           0        0.290316   -1.529856   -0.544702
      7          1           0        0.263629   -1.123239   -1.559951
      8          6           0        0.131110   -0.715202    0.513856
      9          1           0        0.209637   -1.163781    1.507937
     10          6           0       -0.131110    0.715202    0.513856
     11          1           0       -0.209637    1.163781    1.507937
     12          6           0       -0.290316    1.529856   -0.544702
     13          1           0       -0.263629    1.123239   -1.559951
     14          6           0       -0.519439    2.973293   -0.434288
     15          1           0       -1.273658    3.395917   -1.105785
     16          6           0        0.131110    3.784577    0.404857
     17          1           0       -0.096430    4.849138    0.463109
     18          1           0        0.919445    3.409411    1.056353
 ---------------------------------------------------------------------
 Rotational constants (GHZ):     10.4083929      0.6845539      0.6625303
 Standard basis: 6-31G(d) (6D, 7F)
 There are    70 symmetry adapted basis functions of A   symmetry.
 There are    70 symmetry adapted basis functions of B   symmetry.
 Integral buffers will be    131072 words long.
 Raffenetti 2 integral format.
 Two-electron integral symmetry is turned on.
   140 basis functions,   264 primitive gaussians,   140 cartesian basis functions
    29 alpha electrons       29 beta electrons
       nuclear repulsion energy       304.7227937077 Hartrees.
 NAtoms=   18 NActive=   18 NUniq=    9 SFac= 4.00D+00 NAtFMM=   60 NAOKFM=F Big=F
 One-electron integrals computed using PRISM.
 NBasis=   140 RedAO= T  NBF=    70    70
 NBsUse=   140 1.00D-06 NBFU=    70    70
 Initial guess read from the read-write file.
 B after Tr=     0.000000    0.000000    0.000000
         Rot=    1.000000    0.000000    0.000000    0.000000 Ang=   0.00 deg.
 Initial guess orbital symmetries:
       Occupied  (B) (A) (A) (B) (A) (B) (B) (A) (A) (B) (A) (B)
                 (A) (B) (A) (B) (A) (B) (A) (A) (B) (A) (B) (B)
                 (A) (B) (A) (B) (A)
       Virtual   (B) (A) (B) (A) (A) (B) (A) (A) (B) (A) (B) (B)
                 (A) (B) (B) (A) (A) (B) (A) (B) (B) (A) (B) (A)
                 (B) (A) (A) (B) (B) (A) (A) (B) (A) (B) (A) (B)
                 (B) (A) (A) (B) (A) (B) (A) (B) (A) (B) (A) (B)
                 (A) (B) (A) (A) (B) (B) (B) (A) (A) (B) (A) (B)
                 (B) (A) (B) (B) (A) (B) (A) (B) (A) (B) (A) (B)
                 (A) (A) (B) (A) (B) (A) (B) (A) (A) (B) (A) (B)
                 (B) (A) (B) (A) (B) (A) (B) (A) (B) (A) (A) (B)
                 (A) (B) (A) (B) (A) (B) (B) (A) (A) (B) (B) (A)
                 (B) (A) (B)
 Harris functional with IExCor=  402 diagonalized for initial guess.
 ExpMin= 1.61D-01 ExpMax= 3.05D+03 ExpMxC= 4.57D+02 IAcc=1 IRadAn=         1 AccDes= 0.00D+00
 HarFok:  IExCor=  402 AccDes= 0.00D+00 IRadAn=         1 IDoV= 1
 ScaDFX=  1.000000  1.000000  1.000000  1.000000
 FoFCou: FMM=F IPFlag=           0 FMFlag=      100000 FMFlg1=           0
         NFxFlg=           0 DoJE=T BraDBF=F KetDBF=T FulRan=T
         Omega=  0.000000  0.000000  1.000000  0.000000  0.000000 ICntrl=     500 IOpCl=  0
         NMat0=    1 NMatS0=    1 NMatT0=    0 NMatD0=    1 NMtDS0=    0 NMtDT0=    0
         I1Cent=           4 NGrid=           0.
 Petite list used in FoFCou.
 Requested convergence on RMS density matrix=1.00D-08 within 128 cycles.
 Requested convergence on MAX density matrix=1.00D-06.
 Requested convergence on             energy=1.00D-06.
 No special actions if energy rises.
 Integral accuracy reduced to 1.0D-05 until final iterations.
 Initial convergence to 1.0D-05 achieved.  Increase integral accuracy.
 SCF Done:  E(RB3LYP) =  -310.785473279     A.U. after   13 cycles
             Convg  =    0.6994D-08             -V/T =  2.0101
 Calling FoFJK, ICntrl=      2127 FMM=F ISym2X=1 I1Cent= 0 IOpClX= 0 NMat=1 NMatS=1 NMatT=0.
 ***** Axes restored to original set *****
 -------------------------------------------------------------------
 Center     Atomic                   Forces (Hartrees/Bohr)
 Number     Number              X              Y              Z
 -------------------------------------------------------------------
      1        6          -0.001324039   -0.004685940    0.004205654
      2        1          -0.000484450    0.002489635    0.000121813
      3        1           0.000839128   -0.001197410   -0.000936136
      4        6           0.002769850    0.001603699   -0.003839347
      5        1          -0.002817522    0.000496172    0.000031203
      6        6           0.001061158   -0.003278391   -0.005744562
      7        1           0.002086746    0.000084328    0.002286145
      8        6          -0.001615821   -0.000151738    0.006656158
      9        1           0.000147906    0.000265226   -0.002780927
     10        6           0.001615821    0.000151738    0.006656158
     11        1          -0.000147906   -0.000265226   -0.002780927
     12        6          -0.001061158    0.003278391   -0.005744562
     13        1          -0.002086746   -0.000084328    0.002286145
     14        6          -0.002769850   -0.001603699   -0.003839347
     15        1           0.002817522   -0.000496172    0.000031203
     16        6           0.001324039    0.004685940    0.004205654
     17        1           0.000484450   -0.002489635    0.000121813
     18        1          -0.000839128    0.001197410   -0.000936136
 -------------------------------------------------------------------
 Cartesian Forces:  Max     0.006656158 RMS     0.002675381

 GradGradGradGradGradGradGradGradGradGradGradGradGradGradGradGradGradGrad
 Berny optimization.
 Using GEDIIS/GDIIS optimizer.
 Internal  Forces:  Max     0.005972824 RMS     0.001919308
 Search for a local minimum.
 Step number   3 out of a maximum of   79
 All quantities printed in internal units (Hartrees-Bohrs-Radians)
 Mixed Optimization -- RFO/linear search
 Update second derivatives using D2CorX and points    2    3
 DE= -5.71D-03 DEPred=-5.60D-03 R= 1.02D+00
 SS=  1.41D+00  RLast= 7.33D-01 DXNew= 8.4853D-01 2.1999D+00
 Trust test= 1.02D+00 RLast= 7.33D-01 DXMaxT set to 8.49D-01
 ITU=  1  1  0
 Use linear search instead of GDIIS.
     Eigenvalues ---    0.00302   0.00310   0.00500   0.01528   0.01528
     Eigenvalues ---    0.01539   0.01541   0.01615   0.01616   0.02598
     Eigenvalues ---    0.02683   0.02683   0.02683   0.02683   0.02684
     Eigenvalues ---    0.14358   0.15999   0.15999   0.15999   0.16000
     Eigenvalues ---    0.16000   0.16000   0.16000   0.16153   0.16196
     Eigenvalues ---    0.17441   0.22000   0.22000   0.22000   0.22003
     Eigenvalues ---    0.25492   0.28692   0.29014   0.33869   0.37598
     Eigenvalues ---    0.37600   0.37600   0.37600   0.37613   0.37719
     Eigenvalues ---    0.37933   0.38385   0.39316   0.40375   0.53947
     Eigenvalues ---    0.53947   0.54286   0.57308
 RFO step:  Lambda=-2.82960859D-03 EMin= 3.01864576D-03
 Quartic linear search produced a step of  0.37529.
 Iteration  1 RMS(Cart)=  0.12140643 RMS(Int)=  0.02266555
 Iteration  2 RMS(Cart)=  0.04783040 RMS(Int)=  0.00113767
 Iteration  3 RMS(Cart)=  0.00161151 RMS(Int)=  0.00001793
 Iteration  4 RMS(Cart)=  0.00000130 RMS(Int)=  0.00001792
 Iteration  5 RMS(Cart)=  0.00000000 RMS(Int)=  0.00001792
 ClnCor:  largest displacement from symmetrization is 5.54D-09 for atom    15.
 Variable       Old X    -DE/DX   Delta X   Delta X   Delta X     New X
                                 (Linear)    (Quad)   (Total)
    R1        2.06011  -0.00252   0.00339  -0.00878  -0.00539   2.05472
    R2        2.05856  -0.00161   0.00358  -0.00626  -0.00268   2.05588
    R3        2.52514   0.00460  -0.00175   0.01007   0.00831   2.53346
    R4        2.06868  -0.00211   0.00523  -0.00891  -0.00368   2.06500
    R5        2.76972   0.00115  -0.01497   0.01178  -0.00318   2.76654
    R6        2.06731  -0.00210   0.00772  -0.01145  -0.00374   2.06358
    R7        2.54205   0.00597  -0.00162   0.01393   0.01231   2.55437
    R8        2.06628  -0.00263   0.00704  -0.01076  -0.00372   2.06256
    R9        2.74812   0.00442  -0.02913   0.03930   0.01018   2.75829
   R10        2.06628  -0.00263   0.00704  -0.01076  -0.00372   2.06256
   R11        2.54205   0.00597  -0.00162   0.01393   0.01231   2.55437
   R12        2.06731  -0.00210   0.00772  -0.01145  -0.00374   2.06358
   R13        2.76972   0.00115  -0.01497   0.01178  -0.00318   2.76654
   R14        2.06868  -0.00211   0.00523  -0.00891  -0.00368   2.06500
   R15        2.52514   0.00460  -0.00175   0.01007   0.00831   2.53346
   R16        2.06011  -0.00252   0.00339  -0.00878  -0.00539   2.05472
   R17        2.05856  -0.00161   0.00358  -0.00626  -0.00268   2.05588
    A1        2.04362  -0.00058  -0.00893   0.00179  -0.00715   2.03646
    A2        2.12330  -0.00006   0.00486  -0.00385   0.00100   2.12430
    A3        2.11624   0.00064   0.00406   0.00205   0.00610   2.12235
    A4        2.07858  -0.00129  -0.00455  -0.00371  -0.00828   2.07030
    A5        2.17624   0.00221   0.01497   0.00173   0.01667   2.19291
    A6        2.02829  -0.00092  -0.01045   0.00193  -0.00854   2.01975
    A7        2.02614  -0.00060  -0.00717   0.00101  -0.00620   2.01995
    A8        2.15992   0.00264   0.01404   0.00392   0.01793   2.17785
    A9        2.09706  -0.00204  -0.00690  -0.00503  -0.01197   2.08509
   A10        2.04707  -0.00018   0.00098  -0.00749  -0.00652   2.04055
   A11        2.23574  -0.00159   0.00394  -0.00398  -0.00006   2.23569
   A12        2.00036   0.00176  -0.00493   0.01144   0.00650   2.00686
   A13        2.00036   0.00176  -0.00493   0.01144   0.00650   2.00686
   A14        2.23574  -0.00159   0.00394  -0.00398  -0.00006   2.23569
   A15        2.04707  -0.00018   0.00098  -0.00749  -0.00652   2.04055
   A16        2.09706  -0.00204  -0.00690  -0.00503  -0.01197   2.08509
   A17        2.15992   0.00264   0.01404   0.00392   0.01793   2.17785
   A18        2.02614  -0.00060  -0.00717   0.00101  -0.00620   2.01995
   A19        2.02829  -0.00092  -0.01045   0.00193  -0.00854   2.01975
   A20        2.17624   0.00221   0.01497   0.00173   0.01667   2.19291
   A21        2.07858  -0.00129  -0.00455  -0.00371  -0.00828   2.07030
   A22        2.12330  -0.00006   0.00486  -0.00385   0.00100   2.12430
   A23        2.11624   0.00064   0.00406   0.00205   0.00610   2.12235
   A24        2.04362  -0.00058  -0.00893   0.00179  -0.00715   2.03646
    D1        0.04014   0.00019   0.00884   0.00427   0.01313   0.05326
    D2       -3.11509   0.00001   0.00271   0.00013   0.00282  -3.11226
    D3       -3.09308   0.00033   0.01174   0.00687   0.01861  -3.07446
    D4        0.03488   0.00015   0.00560   0.00272   0.00831   0.04319
    D5       -2.40352  -0.00146  -0.09377  -0.16856  -0.26236  -2.66588
    D6        0.74974  -0.00121  -0.08894  -0.15870  -0.24763   0.50210
    D7        0.72479  -0.00164  -0.09976  -0.17264  -0.27241   0.45239
    D8       -2.40513  -0.00139  -0.09492  -0.16278  -0.25768  -2.66281
    D9        0.03344   0.00028   0.00660   0.00701   0.01362   0.04706
   D10       -3.11378   0.00011   0.00377   0.00003   0.00382  -3.10996
   D11       -3.09604   0.00052   0.01163   0.01721   0.02881  -3.06722
   D12        0.03993   0.00036   0.00879   0.01023   0.01902   0.05895
   D13       -3.12876   0.00034   0.00485   0.04425   0.04910  -3.07966
   D14        0.01833   0.00051   0.00763   0.05113   0.05878   0.07711
   D15        0.00733   0.00017   0.00207   0.03738   0.03943   0.04677
   D16       -3.12876   0.00034   0.00485   0.04425   0.04910  -3.07966
   D17        0.03993   0.00036   0.00879   0.01023   0.01902   0.05895
   D18       -3.11378   0.00011   0.00377   0.00003   0.00382  -3.10996
   D19       -3.09604   0.00052   0.01163   0.01721   0.02881  -3.06722
   D20        0.03344   0.00028   0.00660   0.00701   0.01362   0.04706
   D21       -2.40513  -0.00139  -0.09492  -0.16278  -0.25768  -2.66281
   D22        0.74974  -0.00121  -0.08894  -0.15870  -0.24763   0.50210
   D23        0.72479  -0.00164  -0.09976  -0.17264  -0.27241   0.45239
   D24       -2.40352  -0.00146  -0.09377  -0.16856  -0.26236  -2.66588
   D25       -3.11509   0.00001   0.00271   0.00013   0.00282  -3.11226
   D26        0.03488   0.00015   0.00560   0.00272   0.00831   0.04319
   D27        0.04014   0.00019   0.00884   0.00427   0.01313   0.05326
   D28       -3.09308   0.00033   0.01174   0.00687   0.01861  -3.07446
         Item               Value     Threshold  Converged?
 Maximum Force            0.005973     0.000450     NO 
 RMS     Force            0.001919     0.000300     NO 
 Maximum Displacement     0.522453     0.001800     NO 
 RMS     Displacement     0.165507     0.001200     NO 
 Predicted change in Energy=-2.623855D-03
 GradGradGradGradGradGradGradGradGradGradGradGradGradGradGradGradGradGrad

                          Input orientation:                          
 ---------------------------------------------------------------------
 Center     Atomic      Atomic             Coordinates (Angstroms)
 Number     Number       Type             X           Y           Z
 ---------------------------------------------------------------------
      1          6           0       -0.260510   -3.774908    0.458468
      2          1           0       -0.130929   -4.854394    0.471282
      3          1           0       -0.855057   -3.344704    1.261598
      4          6           0        0.272243   -3.012573   -0.507118
      5          1           0        0.807122   -3.501697   -1.324898
      6          6           0        0.181708   -1.553729   -0.589839
      7          1           0        0.238726   -1.131383   -1.595241
      8          6           0        0.065745   -0.726845    0.473148
      9          1           0        0.084237   -1.188062    1.462202
     10          6           0       -0.065745    0.726845    0.473148
     11          1           0       -0.084237    1.188062    1.462202
     12          6           0       -0.181708    1.553729   -0.589839
     13          1           0       -0.238726    1.131383   -1.595241
     14          6           0       -0.272243    3.012573   -0.507118
     15          1           0       -0.807122    3.501697   -1.324898
     16          6           0        0.260510    3.774908    0.458468
     17          1           0        0.130929    4.854394    0.471282
     18          1           0        0.855057    3.344704    1.261598
 ---------------------------------------------------------------------
                    Distance matrix (angstroms):
                    1          2          3          4          5
     1  C    0.000000
     2  H    1.087311   0.000000
     3  H    1.087924   1.851519   0.000000
     4  C    1.340647   2.124174   2.123552   0.000000
     5  H    2.096396   2.436388   3.078546   1.092750   0.000000
     6  C    2.495624   3.481107   2.776742   1.463990   2.173945
     7  H    3.384550   4.274105   3.775802   2.173479   2.452458
     8  C    3.065509   4.132232   2.884912   2.495619   3.388571
     9  H    2.796087   3.803973   2.360852   2.691172   3.693697
    10  C    4.505988   5.581620   4.221633   3.880516   4.677119
    11  H    5.066520   6.123347   4.602214   4.653024   5.527774
    12  C    5.431347   6.495583   5.279760   4.589557   5.203406
    13  H    5.318823   6.333376   5.345722   4.314797   4.757343
    14  C    6.855829   7.928834   6.624425   6.049699   6.653534
    15  H    7.511868   8.573667   7.318844   6.653534   7.187024
    16  C    7.567772   8.638185   7.251096   6.855829   7.511868
    17  H    8.638185   9.712319   8.295902   7.928834   8.573667
    18  H    7.251096   8.295902   6.904541   6.624425   7.318844
                    6          7          8          9         10
     6  C    0.000000
     7  H    1.091998   0.000000
     8  C    1.351712   2.114664   0.000000
     9  H    2.086644   3.061867   1.091462   0.000000
    10  C    2.528279   2.797131   1.459625   2.160461   0.000000
    11  H    3.434970   3.851244   2.160461   2.382089   1.091462
    12  C    3.128636   2.897830   2.528279   3.434970   1.351712
    13  H    2.897830   2.312589   2.797131   3.851244   2.114664
    14  C    4.589557   4.314797   3.880516   4.653024   2.495619
    15  H    5.203406   4.757343   4.677119   5.527774   3.388571
    16  C    5.431347   5.318823   4.505988   5.066520   3.065509
[...]
 9,-0.0379339,-0.1265824,0.1765064,0.0116607,0.0491195,-0.0322205,-0.03
 89055,-0.0667465,-0.2632229,0.0795378,0.0976463,0.0095367,0.0446147,-0
 .0232923,-0.0201356,0.0743544,0.0533305,0.0724278,-0.0625261,-0.099272
 9,0.0046419,-0.0790726,-0.0359957,0.1146809,-0.060154,-0.0051297,-0.34
 92469,0.0729018,0.1047608,-0.001759,0.0257435,-0.0022275,-0.0403934,0.
 0745403,0.0190239,0.0820465,-0.0740002,-0.0992729,0.0046419,0.0790726,
 -0.0359956,0.1146809,0.0601541,0.0051297,0.3492469,0.0729018,0.1047608
 ,-0.001759,-0.0257435,-0.0022275,-0.0403934,-0.0745403,-0.0190239,-0.0
 820465,-0.0740002,-0.1265824,0.1765064,-0.0116607,0.0491195,-0.0322205
 ,0.0389055,0.0667465,0.2632229,0.0795378,0.0976463,0.0095367,-0.044614
 7,-0.0232923,-0.0201356,-0.0743544,-0.0533305,-0.0724279,-0.0625261,-0
 .0030158,-0.2643983,0.1364874,-0.0218785,0.3333041,-0.0447849,0.087896
 9,-0.2406576,0.0271247,0.0407527,0.0672641,-0.0993654,0.0356067,-0.048
 6417,0.0451068,-0.1042456,0.0810909,-0.0379339,-0.1684979,-0.0729911,0
 .138033,-0.0610622,-0.2045981,-0.0257205,0.1632305,-0.0284479,-0.09748
 3,0.0990555,0.0602881,-0.0396769,0.0075999,-0.1242131,-0.0028637,-0.04
 23103,-0.0360869,0.0814931,0.0551537,0.0209111,-0.0934698,0.05213,0.02
 22175,0.056969,-0.1036083,0.032432,0.0108857\Polar=42.4340386,4.090900
 8,202.3917193,0.,0.0000003,72.5699765\PG=C02 [X(C8H10)]\NImag=0\\0.348
 46873,0.03806872,0.71998951,-0.31982272,-0.08398439,0.51883325,-0.0434
 3990,0.03126896,0.01509499,0.03659874,0.02806296,-0.34021710,-0.019161
 21,-0.02945742,0.36032081,0.01550420,-0.02233484,-0.05011138,-0.017904
 43,0.01876284,0.04350975,-0.14142006,0.05998747,0.13161283,0.00131532,
 -0.00025448,0.00171925,0.14076024,0.06270628,-0.09749245,-0.07434457,0
 .01637234,-0.00633425,-0.02116464,-0.06509647,0.09343500,0.13030704,-0
 .07240319,-0.19481173,0.00040761,0.00075718,0.00148015,-0.14697771,0.0
 7907634,0.20411812,-0.16658071,-0.11796629,0.15972099,0.00491661,0.003
 38921,-0.00097749,-0.00433593,-0.01161571,0.01327467,0.34424685,-0.109
 91150,-0.25330376,0.15004589,-0.01833515,-0.01518136,0.02167970,0.0094
 4031,0.01262869,-0.00687246,0.05146836,0.65163192,0.16076821,0.1646729
 1,-0.26765993,-0.00097049,-0.00340680,0.00464585,0.01185039,0.01422749
 ,-0.01220723,-0.30256601,-0.07919986,0.56580903,-0.00580482,0.00550157
 ,0.01496282,-0.00457543,-0.00042437,-0.00448810,0.00711628,-0.00169892
 ,0.00725230,-0.12018174,0.06420835,0.11130581,0.11970782,-0.01227985,0
 .01077661,0.01597905,-0.00005910,0.00111588,-0.00000064,-0.00204255,-0
 .00164193,0.00269517,0.06278219,-0.10599380,-0.08334407,-0.06441095,0.
 11344656,0.01322952,-0.01081054,-0.01257924,-0.00391478,0.00001634,-0.
 00164047,0.00624194,0.00281744,0.00249758,0.11337824,-0.08065051,-0.19
 938579,-0.12956904,0.08876253,0.20704521,0.00744774,-0.01488982,-0.002
 21553,0.00554254,-0.00122136,0.00652327,-0.00390413,0.00007807,-0.0040
 4588,-0.06808141,-0.00007634,0.01883142,0.00283416,0.01645796,0.000427
 93,0.17227581,-0.01187848,-0.03759516,0.02072735,0.00093117,0.00085474
 ,0.00204508,-0.00102459,0.00029543,-0.00325686,0.01486486,-0.24452879,
 -0.01570679,-0.00349788,-0.01288637,-0.00028518,-0.02219326,0.64458633
 ,-0.00293705,0.01712925,0.01128988,0.00823018,0.00299848,0.00278570,-0
 .00472365,-0.00049722,-0.00266487,0.01625094,0.01997134,-0.10166753,-0
 .00001528,-0.02546201,0.00122205,-0.15373878,0.06702257,0.71558416,0.0
 0249047,0.00122720,-0.00041358,-0.00010508,-0.00018739,-0.00020069,0.0
 0023273,0.00018163,0.00001308,0.00250331,-0.00238730,0.00114341,-0.000
 30409,-0.00051830,-0.00106579,-0.05620413,-0.02249925,0.06293733,0.042
 18716,0.00195374,-0.00512616,-0.00161158,-0.00153390,-0.00087186,0.000
 27497,0.00018514,0.00024226,0.00024341,-0.00813155,-0.01247861,0.02911
 624,-0.00003639,0.00100215,-0.00053832,-0.02585221,-0.11057863,0.10383
 507,0.02774748,0.11865254,-0.00027339,0.00002433,0.00052119,-0.0000013
 3,-0.00014229,-0.00006292,-0.00010765,-0.00011723,-0.00002331,0.000203
 53,-0.00319535,0.00258692,-0.00021773,0.00024695,0.00069447,0.05882585
 ,0.10415316,-0.25903471,-0.06660237,-0.11151751,0.27941871,-0.00131748
 ,-0.00408621,0.00224986,0.00009523,0.00006650,0.00014356,-0.00024038,-
 0.00051990,-0.00054567,0.00523109,0.00851393,-0.00133117,0.00130635,0.
 00051029,0.00115201,-0.07003154,0.03542913,0.06515177,0.00498988,0.004
 03298,0.00669524,0.15090451,0.00475396,0.00604145,-0.01013759,0.000566
 01,0.00030469,0.00025175,-0.00073431,-0.00016787,-0.00006659,0.0050235
 7,-0.04284864,-0.02110059,0.00096931,-0.00546246,0.00097066,0.03993208
 ,-0.20815773,-0.15292573,-0.00871600,0.01233007,0.01104224,-0.04170253
 ,0.64626608,0.00261583,0.00771527,-0.00554977,-0.00050995,0.00015141,-
 0.00122719,0.00154551,0.00024151,0.00086102,-0.00267620,-0.02291498,0.
 01076746,0.00067615,0.00269947,0.00189012,0.07024524,-0.15656294,-0.35
 042579,0.00407999,-0.01663187,-0.02354744,-0.10163149,0.06254290,0.738
 04425,0.00085772,-0.00024936,-0.00191655,-0.00010573,0.00005843,0.0001
 2218,0.00032762,-0.00061609,0.00039795,-0.00698042,-0.00392385,-0.0002
 3920,0.00008667,0.00025520,0.00022736,0.00380114,0.00326616,0.00932586
 ,0.01003957,0.00077926,0.00367921,-0.04279224,-0.01721965,0.02515163,0
 .03035873,-0.00016696,-0.00033793,-0.00053230,0.00012255,0.00011646,0.
 00016841,-0.00055147,-0.00094430,-0.00022228,-0.00044701,-0.00027153,-
 0.00019344,0.00001666,0.00023688,0.00021836,0.00262022,0.01246157,-0.0
 1667661,0.00142442,-0.00178343,-0.00286775,-0.01333030,-0.11075179,0.1
 0564965,0.01302918,0.11878098,0.00039538,-0.00045320,-0.00016322,-0.00
 017110,0.00004870,0.00045818,-0.00071057,-0.00016877,0.00054369,-0.000
 85613,0.00136766,0.00089027,0.00008699,-0.00003845,0.00022579,0.004663
 99,0.01333019,-0.02308816,0.00190559,-0.00306051,-0.00231787,0.0289830
 2,0.10480740,-0.27216361,-0.03517456,-0.11392499,0.29146607,-0.0006139
 0,0.00152126,0.00042145,-0.00025388,-0.00003728,-0.00050785,0.00015752
 ,0.00025882,-0.00013645,0.00989444,-0.00003260,0.00155172,-0.00001083,
 -0.00075562,0.00003568,0.00395608,0.00801143,0.00272402,-0.00635344,-0
 .00009758,-0.00244382,-0.05775690,0.00525428,-0.00095455,0.00283551,-0
 .00303663,0.00017695,0.15090451,-0.00179182,-0.00281813,0.00437048,0.0
 0003123,0.00002267,0.00023757,0.00001582,-0.00013618,0.00008557,0.0013
 7912,0.01288662,-0.00502451,-0.00092707,0.00007264,-0.00057673,0.00589
 949,-0.04492981,-0.02694363,0.00269448,-0.00011032,0.00265367,0.005254
 28,-0.24966326,0.02219443,0.00457203,-0.01287804,-0.00161239,-0.041702
 53,0.64626608,0.00091331,0.00216135,-0.00134414,-0.00030589,0.00002416
 ,-0.00001424,-0.00042958,-0.00004316,0.00022074,0.00449956,-0.00508952
 ,-0.00255963,0.00022515,-0.00160437,0.00025547,-0.00044787,-0.02016132
 ,0.01298950,-0.00287299,0.00013447,0.00019067,0.00095455,-0.02219443,-
 0.11027408,-0.00303953,0.02966324,0.00188667,0.10163149,-0.06254290,0.
 73804425,-0.00010612,-0.00024749,0.00024948,0.00003269,0.00001706,0.00
 002835,-0.00001101,-0.00002396,-0.00001419,-0.00011104,0.00092464,-0.0
 0014332,-0.00016486,0.00000926,-0.00013802,0.00266729,-0.00067842,-0.0
 0089775,0.00019594,-0.00014197,-0.00009010,0.00283551,0.00457203,0.003
 03953,-0.00093145,0.00018957,-0.00046010,-0.04279224,-0.01721965,-0.02
 515163,0.03035873,-0.00001458,-0.00013425,0.00004763,-0.00005999,-0.00
 005348,0.00001544,-0.00001947,0.00002879,0.00003552,0.00128338,0.00024
 453,-0.00116364,0.00003552,-0.00058011,-0.00001881,-0.00092558,-0.0054
 1006,0.00217402,-0.00016950,0.00021158,-0.00013497,-0.00303663,-0.0128
 7804,-0.02966324,0.00018957,0.00106412,0.00032709,-0.01333030,-0.11075
 179,-0.10564965,0.01302918,0.11878098,0.00004358,-0.00003632,-0.000103
 10,-0.00001938,-0.00002005,0.00000403,0.00000974,0.00002021,0.00000705
 ,0.00001730,-0.00004964,0.00009899,0.00002943,-0.00002478,0.00003507,-
 0.00101977,0.00056358,0.00108365,-0.00022146,0.00016973,0.00007111,-0.
 00017695,0.00161239,0.00188667,0.00046010,-0.00032709,0.00106540,-0.02
 898302,-0.10480740,-0.27216361,0.03517456,0.11392499,0.29146607,-0.000
 05176,0.00024809,0.00020440,0.00000333,0.00002647,-0.00003833,0.000004
 56,-0.00000907,-0.00001033,0.00010827,-0.00002299,-0.00066660,-0.00003
 424,0.00002892,0.00001784,-0.00054028,-0.00052011,-0.00118142,0.000206
 60,0.00041943,-0.00027569,0.00395608,0.00589949,0.00044787,0.00266729,
 -0.00092558,0.00101977,-0.07003154,0.03993208,-0.07024524,0.00380114,0
 .00262022,-0.00466399,0.17227581,0.00074980,0.00078229,-0.00206283,0.0
 0012653,-0.00007710,0.00002899,0.00009012,0.00010129,-0.00005799,-0.00
 190603,-0.00447552,0.00185511,0.00034952,-0.00010498,0.00018074,-0.000
 52011,0.00982115,0.01221376,0.00037928,-0.00015864,-0.00028895,0.00801
 143,-0.04492981,0.02016132,-0.00067842,-0.00541006,-0.00056358,0.03542
 913,-0.20815773,0.15656294,0.00326616,0.01246157,-0.01333019,-0.022193
 26,0.64458633,-0.00080757,-0.00142895,0.00170518,0.00013391,0.00002623
 ,0.00015830,0.00002993,-0.00005203,0.00000506,-0.00020327,0.00463312,-
 0.00227741,-0.00026284,0.00004811,-0.00024467,0.00118142,-0.01221376,-
 0.00786665,0.00223602,-0.00038718,0.00044632,-0.00272402,0.02694363,0.
 01298950,0.00089775,-0.00217402,0.00108365,-0.06515177,0.15292573,-0.3
 5042579,-0.00932586,0.01667661,-0.02308816,0.15373878,-0.06702257,0.71
 558416,-0.00004578,-0.00005530,0.00005521,-0.00000100,-0.00003721,0.00
 003339,0.00001854,0.00001086,0.00002570,0.00000362,0.00009960,0.000194
 60,-0.00002576,0.00001314,-0.00001140,0.00020660,0.00037928,-0.0022360
 2,0.00017147,0.00079216,0.00064103,-0.00635344,0.00269448,0.00287299,0
 .00019594,-0.00016950,0.00022146,0.00498988,-0.00871600,-0.00407999,0.
 01003957,0.00142442,-0.00190559,-0.05620413,-0.02249925,-0.06293733,0.
 04218716,0.00003515,0.00009993,-0.00005180,0.00002105,0.00001284,0.000
 00182,-0.00000939,-0.00000836,-0.00000234,-0.00017294,-0.00022745,-0.0
 0006671,0.00000953,0.00002893,0.00003234,0.00041943,-0.00015864,0.0003
 8718,0.00079216,-0.00123683,0.00011361,-0.00009758,-0.00011032,-0.0001
 3447,-0.00014197,0.00021158,-0.00016973,0.00403298,0.01233007,0.016631
 87,0.00077926,-0.00178343,0.00306051,-0.02585221,-0.11057863,-0.103835
 07,0.02774748,0.11865254,0.00003870,-0.00010955,-0.00002230,-0.0000742
 0,-0.00002088,-0.00003391,-0.00000941,0.00000523,-0.00000614,0.0000676
 9,0.00006451,0.00052876,0.00000999,0.00003060,-0.00000312,0.00027569,0
 .00028895,0.00044632,-0.00064103,-0.00011361,0.00059357,0.00244382,-0.
 00265367,0.00019067,0.00009010,0.00013497,0.00007111,-0.00669524,-0.01
 104224,-0.02354744,-0.00367921,0.00286775,-0.00231787,-0.05882585,-0.1
 0415316,-0.25903471,0.06660237,0.11151751,0.27941871,0.00002922,-0.000
 58144,0.00000424,-0.00001555,-0.00000974,0.00006447,-0.00002105,-0.000
 03259,0.00005321,-0.00065596,0.00068086,0.00006698,0.00003040,-0.00000
 826,-0.00005508,0.00010827,-0.00190603,0.00020327,0.00000362,-0.000172
 94,-0.00006769,0.00989444,0.00137912,-0.00449956,-0.00011104,0.0012833
 8,-0.00001730,0.00523109,0.00502357,0.00267620,-0.00698042,-0.00044701
 ,0.00085613,-0.06808141,0.01486486,-0.01625094,0.00250331,-0.00813155,
 -0.00020353,0.34424685,-0.00040356,-0.00036304,0.00106097,-0.00007220,
 0.00008298,-0.00007037,0.00002464,-0.00005410,0.00003417,0.00068086,0.
 00209707,-0.00116819,-0.00019522,0.00015479,-0.00006666,-0.00002299,-0
 .00447552,-0.00463312,0.00009960,-0.00022745,-0.00006451,-0.00003260,0
 .01288662,0.00508952,0.00092464,0.00024453,0.00004964,0.00851393,-0.04
 284864,0.02291498,-0.00392385,-0.00027153,-0.00136766,-0.00007634,-0.2
 4452879,-0.01997134,-0.00238730,-0.01247861,0.00319535,0.05146836,0.65
 163192,-0.00013094,-0.00046025,0.00035207,0.00001056,-0.00004249,0.000
 07042,-0.00004792,-0.00000388,-0.00002114,-0.00006698,0.00116819,0.000
 09146,-0.00003596,0.00000377,-0.00006256,0.00066660,-0.00185511,-0.002
 27741,-0.00019460,0.00006671,0.00052876,-0.00155172,0.00502451,-0.0025
 5963,0.00014332,0.00116364,0.00009899,0.00133117,0.02110059,0.01076746
 ,0.00023920,0.00019344,0.00089027,-0.01883142,0.01570679,-0.10166753,-
 0.00114341,-0.02911624,0.00258692,0.30256601,0.07919986,0.56580903,0.0
 0002727,0.00008013,-0.00005015,-0.00000767,0.00000733,-0.00001098,-0.0
 0000164,0.00000006,0.00000327,0.00003040,-0.00019522,0.00003596,0.0000
 0212,0.00001282,0.00001755,-0.00003424,0.00034952,0.00026284,-0.000025
 76,0.00000953,-0.00000999,-0.00001083,-0.00092707,-0.00022515,-0.00016
 486,0.00003552,-0.00002943,0.00130635,0.00096931,-0.00067615,0.0000866
 7,0.00001666,-0.00008699,0.00283416,-0.00349788,0.00001528,-0.00030409
 ,-0.00003639,0.00021773,-0.12018174,0.06420835,-0.11130581,0.11970782,
 -0.00002976,-0.00010298,0.00001104,0.00001818,-0.00002413,0.00001519,0
 .00001641,0.00001753,-0.00001186,-0.00000826,0.00015479,-0.00000377,0.
 00001282,-0.00005520,-0.00002304,0.00002892,-0.00010498,-0.00004811,0.
 00001314,0.00002893,-0.00003060,-0.00075562,0.00007264,0.00160437,0.00
 000926,-0.00058011,0.00002478,0.00051029,-0.00546246,-0.00269947,0.000
 25520,0.00023688,0.00003845,0.01645796,-0.01288637,0.02546201,-0.00051
 830,0.00100215,-0.00024695,0.06278219,-0.10599380,0.08334407,-0.064410
 95,0.11344656,-0.00001444,0.00002382,0.00006082,-0.00000745,0.00001155
 ,-0.00001093,-0.00000413,-0.00000675,-0.00000110,0.00005508,0.00006666
 ,-0.00006256,-0.00001755,0.00002304,0.00000129,-0.00001784,-0.00018074
 ,-0.00024467,0.00001140,-0.00003234,-0.00000312,-0.00003568,0.00057673
 ,0.00025547,0.00013802,0.00001881,0.00003507,-0.00115201,-0.00097066,0
 .00189012,-0.00022736,-0.00021836,0.00022579,-0.00042793,0.00028518,0.
 00122205,0.00106579,0.00053832,0.00069447,-0.11337824,0.08065051,-0.19
 938579,0.12956904,-0.08876253,0.20704521,0.00004562,0.00014271,-0.0001
 5753,0.00000451,-0.00000430,-0.00000792,0.00000925,0.00000748,-0.00000
 491,0.00002922,-0.00040356,0.00013094,0.00002727,-0.00002976,0.0000144
 4,-0.00005176,0.00074980,0.00080757,-0.00004578,0.00003515,-0.00003870
 ,-0.00061390,-0.00179182,-0.00091331,-0.00010612,-0.00001458,-0.000043
 58,-0.00131748,0.00475396,-0.00261583,0.00085772,-0.00016696,-0.000395
 38,0.00744774,-0.01187848,0.00293705,0.00249047,0.00195374,0.00027339,
 -0.16658071,-0.10991150,-0.16076821,-0.00580482,-0.01227985,-0.0132295
 2,0.34846873,0.00014271,-0.00016292,-0.00034527,0.00005674,-0.00006394
 ,0.00008226,-0.00002694,0.00002802,-0.00003130,-0.00058144,-0.00036304
 ,0.00046025,0.00008013,-0.00010298,-0.00002382,0.00024809,0.00078229,0
 .00142895,-0.00005530,0.00009993,0.00010955,0.00152126,-0.00281813,-0.
 00216135,-0.00024749,-0.00013425,0.00003632,-0.00408621,0.00604145,-0.
 00771527,-0.00024936,-0.00033793,0.00045320,-0.01488982,-0.03759516,-0
 .01712925,0.00122720,-0.00512616,-0.00002433,-0.11796629,-0.25330376,-
 0.16467291,0.00550157,0.01077661,0.01081054,0.03806872,0.71998951,0.00
 015753,0.00034527,-0.00040613,-0.00001005,0.00000155,-0.00002539,0.000
 01026,0.00000932,0.00001396,-0.00000424,-0.00106097,0.00035207,0.00005
 015,-0.00001104,0.00006082,-0.00020440,0.00206283,0.00170518,-0.000055
 21,0.00005180,-0.00002230,-0.00042145,-0.00437048,-0.00134414,-0.00024
 948,-0.00004763,-0.00010310,-0.00224986,0.01013759,-0.00554977,0.00191
 655,0.00053230,-0.00016322,0.00221553,-0.02072735,0.01128988,0.0004135
 8,0.00161158,0.00052119,-0.15972099,-0.15004589,-0.26765993,-0.0149628
 2,-0.01597905,-0.01257924,0.31982272,0.08398439,0.51883325,0.00000451,
 0.00005674,0.00001005,0.00000066,0.00000169,-0.00000347,-0.00000537,0.
 00000130,-0.00000835,-0.00001555,-0.00007220,-0.00001056,-0.00000767,0
 .00001818,0.00000745,0.00000333,0.00012653,-0.00013391,-0.00000100,0.0
 0002105,0.00007420,-0.00025388,0.00003123,0.00030589,0.00003269,-0.000
 05999,0.00001938,0.00009523,0.00056601,0.00050995,-0.00010573,0.000122
 55,0.00017110,0.00554254,0.00093117,-0.00823018,-0.00010508,-0.0015339
 0,0.00000133,0.00491661,-0.01833515,0.00097049,-0.00457543,-0.00005910
 ,0.00391478,-0.04343990,0.03126896,-0.01509499,0.03659874,-0.00000430,
 -0.00006394,-0.00000155,0.00000169,-0.00001453,0.00000724,0.00000390,0
 .00000669,-0.00000251,-0.00000974,0.00008298,0.00004249,0.00000733,-0.
 00002413,-0.00001155,0.00002647,-0.00007710,-0.00002623,-0.00003721,0.
 00001284,0.00002088,-0.00003728,0.00002267,-0.00002416,0.00001706,-0.0
 0005348,0.00002005,0.00006650,0.00030469,-0.00015141,0.00005843,0.0001
 1646,-0.00004870,-0.00122136,0.00085474,-0.00299848,-0.00018739,-0.000
 87186,0.00014229,0.00338921,-0.01518136,0.00340680,-0.00042437,0.00111
 588,-0.00001634,0.02806296,-0.34021710,0.01916121,-0.02945742,0.360320
 81,0.00000792,-0.00008226,-0.00002539,0.00000347,-0.00000724,0.0000119
 2,-0.00000058,0.00000074,0.00000212,-0.00006447,0.00007037,0.00007042,
 0.00001098,-0.00001519,-0.00001093,0.00003833,-0.00002899,0.00015830,-
 0.00003339,-0.00000182,-0.00003391,0.00050785,-0.00023757,-0.00001424,
 -0.00002835,-0.00001544,0.00000403,-0.00014356,-0.00025175,-0.00122719
 ,-0.00012218,-0.00016841,0.00045818,-0.00652327,-0.00204508,0.00278570
 ,0.00020069,-0.00027497,-0.00006292,0.00097749,-0.02167970,0.00464585,
 0.00448810,0.00000064,-0.00164047,-0.01550420,0.02233484,-0.05011138,0
 .01790443,-0.01876284,0.04350975,0.00000925,-0.00002694,-0.00001026,-0
 .00000537,0.00000390,0.00000058,-0.00000248,-0.00000415,0.00000866,-0.
 00002105,0.00002464,0.00004792,-0.00000164,0.00001641,0.00000413,0.000
 00456,0.00009012,-0.00002993,0.00001854,-0.00000939,0.00000941,0.00015
 752,0.00001582,0.00042958,-0.00001101,-0.00001947,-0.00000974,-0.00024
 038,-0.00073431,-0.00154551,0.00032762,-0.00055147,0.00071057,-0.00390
 413,-0.00102459,0.00472365,0.00023273,0.00018514,0.00010765,-0.0043359
 3,0.00944031,-0.01185039,0.00711628,-0.00204255,-0.00624194,-0.1414200
 6,0.05998747,-0.13161283,0.00131532,-0.00025448,-0.00171925,0.14076024
 ,0.00000748,0.00002802,-0.00000932,0.00000130,0.00000669,-0.00000074,-
 0.00000415,-0.00000427,0.00000002,-0.00003259,-0.00005410,0.00000388,0
 .00000006,0.00001753,0.00000675,-0.00000907,0.00010129,0.00005203,0.00
 001086,-0.00000836,-0.00000523,0.00025882,-0.00013618,0.00004316,-0.00
 002396,0.00002879,-0.00002021,-0.00051990,-0.00016787,-0.00024151,-0.0
 0061609,-0.00094430,0.00016877,0.00007807,0.00029543,0.00049722,0.0001
 8163,0.00024226,0.00011723,-0.01161571,0.01262869,-0.01422749,-0.00169
 892,-0.00164193,-0.00281744,0.06270628,-0.09749245,0.07434457,0.016372
 34,-0.00633425,0.02116464,-0.06509647,0.09343500,0.00000491,0.00003130
 ,0.00001396,0.00000835,0.00000251,0.00000212,-0.00000866,-0.00000002,-
 0.00001397,-0.00005321,-0.00003417,-0.00002114,-0.00000327,0.00001186,
 -0.00000110,0.00001033,0.00005799,0.00000506,-0.00002570,0.00000234,-0
 .00000614,0.00013645,-0.00008557,0.00022074,0.00001419,-0.00003552,0.0
 0000705,0.00054567,0.00006659,0.00086102,-0.00039795,0.00022228,0.0005
 4369,0.00404588,0.00325686,-0.00266487,-0.00001308,-0.00024341,-0.0000
 2331,-0.01327467,0.00687246,-0.01220723,-0.00725230,-0.00269517,0.0024
 9758,-0.13030704,0.07240319,-0.19481173,-0.00040761,-0.00075718,0.0014
 8015,0.14697771,-0.07907634,0.20411812\\0.00000564,0.00000658,-0.00000
 704,-0.00000554,-0.00000244,0.00000206,-0.00000346,0.00000038,0.000000
 71,-0.00000071,-0.00001823,0.00000597,-0.00000179,0.00000303,-0.000003
 25,-0.00000279,0.00002362,0.00001926,-0.00000292,-0.00000064,-0.000003
 75,0.00000653,-0.00002560,-0.00001781,-0.00000327,0.00000622,0.0000038
 7,-0.00000653,0.00002560,-0.00001781,0.00000327,-0.00000622,0.00000387
 ,0.00000279,-0.00002362,0.00001926,0.00000292,0.00000064,-0.00000375,0
 .00000071,0.00001823,0.00000597,0.00000179,-0.00000303,-0.00000325,-0.
 00000564,-0.00000658,-0.00000704,0.00000554,0.00000244,0.00000206,0.00
 000346,-0.00000038,0.00000071\\\@


 IT IS THE BEHAVIOR AND DISTRIBUTION OF THE ELECTRONS 
 AROUND THE NUCLEUS THAT GIVES THE FUNDAMENTAL 
 CHARACTER OF AN ATOM:  IT MUST BE THE SAME FOR MOLECULES.

                               -- C. A. COULSON, 1951
 Job cpu time:  0 days  0 hours  2 minutes  6.4 seconds.
 File lengths (MBytes):  RWF=     31 Int=      0 D2E=      0 Chk=      3 Scr=      1
 Normal termination of Gaussian 09 at Tue Mar  2 15:07:57 2021.
