 octa_2-cis.com

 Entering Gaussian System, Link 0=g09
 Input=test_1.com
 Output=test_1.log
 Initial command:
 /home/student/g09/l1.exe /home/student/Aniruddha_1811022/Lab_3/Gau-12384.inp -scrdir=/home/student/Aniruddha_1811022/Lab_3/
 Entering Link 1 = /home/student/g09/l1.exe PID=     12386.
  
 Copyright (c) 1988,1990,1992,1993,1995,1998,2003,2009,2011,
            Gaussian, Inc.  All Rights Reserved.
  
 This is part of the Gaussian(R) 09 program.  It is based on
 the Gaussian(R) 03 system (copyright 2003, Gaussian, Inc.),
 the Gaussian(R) 98 system (copyright 1998, Gaussian, Inc.),
 the Gaussian(R) 94 system (copyright 1995, Gaussian, Inc.),
 the Gaussian 92(TM) system (copyright 1992, Gaussian, Inc.),
 the Gaussian 90(TM) system (copyright 1990, Gaussian, Inc.),
 the Gaussian 88(TM) system (copyright 1988, Gaussian, Inc.),
 the Gaussian 86(TM) system (copyright 1986, Carnegie Mellon
 University), and the Gaussian 82(TM) system (copyright 1983,
 Carnegie Mellon University). Gaussian is a federally registered
 trademark of Gaussian, Inc.
  
 This software contains proprietary and confidential information,
 including trade secrets, belonging to Gaussian, Inc.
  
 This software is provided under written license and may be
 used, copied, transmitted, or stored only in accord with that
 written license.
  
 The following legend is applicable only to US Government
 contracts under FAR:
  
                    RESTRICTED RIGHTS LEGEND
  
 Use, reproduction and disclosure by the US Government is
 subject to restrictions as set forth in subparagraphs (a)
 and (c) of the Commercial Computer Software - Restricted
 Rights clause in FAR 52.227-19.
  
 Gaussian, Inc.
 340 Quinnipiac St., Bldg. 40, Wallingford CT 06492
  
  
 ---------------------------------------------------------------
 Warning -- This program may not be used in any manner that
 competes with the business of Gaussian, Inc. or will provide
 assistance to any competitor of Gaussian, Inc.  The licensee
 of this program is prohibited from giving any competitor of
 Gaussian, Inc. access to this program.  By using this program,
 the user acknowledges that Gaussian, Inc. is engaged in the
 business of creating and licensing software in the field of
 computational chemistry and represents and warrants to the
 licensee that it is not a competitor of Gaussian, Inc. and that
 it will not use this program in any manner prohibited above.
 ---------------------------------------------------------------
  

 Cite this work as:
 Gaussian 09, Revision C.01,
 M. J. Frisch, G. W. Trucks, H. B. Schlegel, G. E. Scuseria, 
 M. A. Robb, J. R. Cheeseman, G. Scalmani, V. Barone, B. Mennucci, 
 G. A. Petersson, H. Nakatsuji, M. Caricato, X. Li, H. P. Hratchian, 
 A. F. Izmaylov, J. Bloino, G. Zheng, J. L. Sonnenberg, M. Hada, 
 M. Ehara, K. Toyota, R. Fukuda, J. Hasegawa, M. Ishida, T. Nakajima, 
 Y. Honda, O. Kitao, H. Nakai, T. Vreven, J. A. Montgomery, Jr., 
 J. E. Peralta, F. Ogliaro, M. Bearpark, J. J. Heyd, E. Brothers, 
 K. N. Kudin, V. N. Staroverov, T. Keith, R. Kobayashi, J. Normand, 
 K. Raghavachari, A. Rendell, J. C. Burant, S. S. Iyengar, J. Tomasi, 
 M. Cossi, N. Rega, J. M. Millam, M. Klene, J. E. Knox, J. B. Cross, 
 V. Bakken, C. Adamo, J. Jaramillo, R. Gomperts, R. E. Stratmann, 
 O. Yazyev, A. J. Austin, R. Cammi, C. Pomelli, J. W. Ochterski, 
 R. L. Martin, K. Morokuma, V. G. Zakrzewski, G. A. Voth, 
 P. Salvador, J. J. Dannenberg, S. Dapprich, A. D. Daniels, 
 O. Farkas, J. B. Foresman, J. V. Ortiz, J. Cioslowski, 
 and D. J. Fox, Gaussian, Inc., Wallingford CT, 2010.
 
 ******************************************
 Gaussian 09:  EM64L-G09RevC.01 23-Sep-2011
                 2-Mar-2021 
 ******************************************
 %chk=test_1.chk
 -----------------------------------------
 # b3lyp/6-31g* geom=connectivity opt freq
 -----------------------------------------
 1/14=-1,18=20,19=15,26=3,38=1,57=2/1,3;
 2/9=110,12=2,17=6,18=5,40=1/2;
 3/5=1,6=6,7=1,11=2,16=1,25=1,30=1,71=1,74=-5/1,2,3;
 4//1;
 5/5=2,38=5/2;
 6/7=2,8=2,9=2,10=2,28=1/1;
 7//1,2,3,16;
 1/14=-1,18=20,19=15/3(2);
 2/9=110/2;
 99//99;
 2/9=110/2;
 3/5=1,6=6,7=1,11=2,16=1,25=1,30=1,71=1,74=-5/1,2,3;
 4/5=5,16=3/1;
 5/5=2,38=5/2;
 7//1,2,3,16;
 1/14=-1,18=20,19=15/3(-5);
 2/9=110/2;
 6/7=2,8=2,9=2,10=2,19=2,28=1/1;
 99/9=1/99;
 -------------------
 Title Card Required
 -------------------
 Charge =  0 Multiplicity = 1
 Symbolic Z-Matrix:
 C                     0.73649  -3.58651   0. 
 H                     0.95285  -4.63048   0. 
 H                     1.53706  -2.88097   0. 
 C                    -0.54801  -3.15479   0. 
 H                    -1.34858  -3.86032   0. 
 C                    -0.85941  -1.65224   0. 
 H                    -1.87443  -1.32298   0. 
 C                     0.14773  -0.74559   0. 
 H                     1.15164  -1.06692   0. 
 C                    -0.14773   0.74559   0. 
 H                    -1.15164   1.06692   0. 
 C                     0.85941   1.65224   0. 
 H                     1.87443   1.32298   0. 
 C                     0.54801   3.15479   0. 
 H                     1.34858   3.86032   0. 
 C                    -0.73649   3.58651   0. 
 H                    -0.95285   4.63048   0. 
 H                    -1.53706   2.88097   0. 
 

 GradGradGradGradGradGradGradGradGradGradGradGradGradGradGradGradGradGrad
 Berny optimization.
 Initialization pass.
                           ----------------------------
                           !    Initial Parameters    !
                           ! (Angstroms and Degrees)  !
 --------------------------                            --------------------------
 ! Name  Definition              Value          Derivative Info.                !
 --------------------------------------------------------------------------------
 ! R1    R(1,2)                  1.0662         estimate D2E/DX2                !
 ! R2    R(1,3)                  1.0671         estimate D2E/DX2                !
 ! R3    R(1,4)                  1.3551         estimate D2E/DX2                !
 ! R4    R(4,5)                  1.0671         estimate D2E/DX2                !
 ! R5    R(4,6)                  1.5345         estimate D2E/DX2                !
 ! R6    R(6,7)                  1.0671         estimate D2E/DX2                !
 ! R7    R(6,8)                  1.3551         estimate D2E/DX2                !
 ! R8    R(8,9)                  1.0541         estimate D2E/DX2                !
 ! R9    R(8,10)                 1.5202         estimate D2E/DX2                !
 ! R10   R(10,11)                1.0541         estimate D2E/DX2                !
 ! R11   R(10,12)                1.3551         estimate D2E/DX2                !
 ! R12   R(12,13)                1.0671         estimate D2E/DX2                !
 ! R13   R(12,14)                1.5345         estimate D2E/DX2                !
 ! R14   R(14,15)                1.0671         estimate D2E/DX2                !
 ! R15   R(14,16)                1.3551         estimate D2E/DX2                !
 ! R16   R(16,17)                1.0662         estimate D2E/DX2                !
 ! R17   R(16,18)                1.0671         estimate D2E/DX2                !
 ! A1    A(2,1,3)              119.6808         estimate D2E/DX2                !
 ! A2    A(2,1,4)              120.2859         estimate D2E/DX2                !
 ! A3    A(3,1,4)              120.0332         estimate D2E/DX2                !
 ! A4    A(1,4,5)              120.0332         estimate D2E/DX2                !
 ! A5    A(1,4,6)              120.2859         estimate D2E/DX2                !
 ! A6    A(5,4,6)              119.6808         estimate D2E/DX2                !
 ! A7    A(4,6,7)              119.6808         estimate D2E/DX2                !
 ! A8    A(4,6,8)              120.2859         estimate D2E/DX2                !
 ! A9    A(7,6,8)              120.0332         estimate D2E/DX2                !
 ! A10   A(6,8,9)              120.2567         estimate D2E/DX2                !
 ! A11   A(6,8,10)             120.7871         estimate D2E/DX2                !
 ! A12   A(9,8,10)             118.9561         estimate D2E/DX2                !
 ! A13   A(8,10,11)            118.9561         estimate D2E/DX2                !
 ! A14   A(8,10,12)            120.7871         estimate D2E/DX2                !
 ! A15   A(11,10,12)           120.2567         estimate D2E/DX2                !
 ! A16   A(10,12,13)           120.0332         estimate D2E/DX2                !
 ! A17   A(10,12,14)           120.2859         estimate D2E/DX2                !
 ! A18   A(13,12,14)           119.6808         estimate D2E/DX2                !
 ! A19   A(12,14,15)           119.6808         estimate D2E/DX2                !
 ! A20   A(12,14,16)           120.2859         estimate D2E/DX2                !
 ! A21   A(15,14,16)           120.0332         estimate D2E/DX2                !
 ! A22   A(14,16,17)           120.2859         estimate D2E/DX2                !
 ! A23   A(14,16,18)           120.0332         estimate D2E/DX2                !
 ! A24   A(17,16,18)           119.6808         estimate D2E/DX2                !
 ! D1    D(2,1,4,5)              0.0            estimate D2E/DX2                !
 ! D2    D(2,1,4,6)            180.0            estimate D2E/DX2                !
 ! D3    D(3,1,4,5)            180.0            estimate D2E/DX2                !
 ! D4    D(3,1,4,6)              0.0            estimate D2E/DX2                !
 ! D5    D(1,4,6,7)            180.0            estimate D2E/DX2                !
 ! D6    D(1,4,6,8)              0.0            estimate D2E/DX2                !
 ! D7    D(5,4,6,7)              0.0            estimate D2E/DX2                !
 ! D8    D(5,4,6,8)            180.0            estimate D2E/DX2                !
 ! D9    D(4,6,8,9)              0.0            estimate D2E/DX2                !
 ! D10   D(4,6,8,10)           180.0            estimate D2E/DX2                !
 ! D11   D(7,6,8,9)            180.0            estimate D2E/DX2                !
 ! D12   D(7,6,8,10)             0.0            estimate D2E/DX2                !
 ! D13   D(6,8,10,11)            0.0            estimate D2E/DX2                !
 ! D14   D(6,8,10,12)          180.0            estimate D2E/DX2                !
 ! D15   D(9,8,10,11)          180.0            estimate D2E/DX2                !
 ! D16   D(9,8,10,12)            0.0            estimate D2E/DX2                !
 ! D17   D(8,10,12,13)           0.0            estimate D2E/DX2                !
 ! D18   D(8,10,12,14)         180.0            estimate D2E/DX2                !
 ! D19   D(11,10,12,13)        180.0            estimate D2E/DX2                !
 ! D20   D(11,10,12,14)          0.0            estimate D2E/DX2                !
 ! D21   D(10,12,14,15)        180.0            estimate D2E/DX2                !
 ! D22   D(10,12,14,16)          0.0            estimate D2E/DX2                !
 ! D23   D(13,12,14,15)          0.0            estimate D2E/DX2                !
 ! D24   D(13,12,14,16)        180.0            estimate D2E/DX2                !
 ! D25   D(12,14,16,17)        180.0            estimate D2E/DX2                !
 ! D26   D(12,14,16,18)          0.0            estimate D2E/DX2                !
 ! D27   D(15,14,16,17)          0.0            estimate D2E/DX2                !
 ! D28   D(15,14,16,18)        180.0            estimate D2E/DX2                !
 --------------------------------------------------------------------------------
 Trust Radius=3.00D-01 FncErr=1.00D-07 GrdErr=1.00D-06
 Number of steps in this run=     79 maximum allowed number of steps=    108.
 GradGradGradGradGradGradGradGradGradGradGradGradGradGradGradGradGradGrad

                          Input orientation:                          
 ---------------------------------------------------------------------
 Center     Atomic      Atomic             Coordinates (Angstroms)
 Number     Number       Type             X           Y           Z
 ---------------------------------------------------------------------
      1          6           0        0.736493   -3.586506    0.000000
      2          1           0        0.952852   -4.630484    0.000000
      3          1           0        1.537065   -2.880973    0.000000
      4          6           0       -0.548012   -3.154786    0.000000
      5          1           0       -1.348583   -3.860320    0.000000
      6          6           0       -0.859406   -1.652239    0.000000
      7          1           0       -1.874433   -1.322978    0.000000
      8          6           0        0.147729   -0.745589    0.000000
      9          1           0        1.151644   -1.066923    0.000000
     10          6           0       -0.147729    0.745589    0.000000
     11          1           0       -1.151644    1.066923    0.000000
     12          6           0        0.859406    1.652239    0.000000
     13          1           0        1.874433    1.322978    0.000000
     14          6           0        0.548012    3.154786    0.000000
     15          1           0        1.348583    3.860320    0.000000
     16          6           0       -0.736493    3.586506    0.000000
     17          1           0       -0.952852    4.630484    0.000000
     18          1           0       -1.537065    2.880973    0.000000
 ---------------------------------------------------------------------
                    Distance matrix (angstroms):
                    1          2          3          4          5
     1  C    0.000000
     2  H    1.066161   0.000000
     3  H    1.067095   1.844477   0.000000
     4  C    1.355114   2.104822   2.102978   0.000000
     5  H    2.102978   2.426882   3.047308   1.067095   0.000000
     6  C    2.507645   3.486290   2.693113   1.534475   2.261618
     7  H    3.455502   4.351222   3.750422   2.261618   2.591259
     8  C    2.901285   3.967446   2.547571   2.507645   3.455502
     9  H    2.553556   3.569101   1.854542   2.692211   3.748893
    10  C    4.421414   5.487571   3.998810   3.920861   4.759879
    11  H    5.021899   6.073660   4.776509   4.264646   4.931177
    12  C    5.240187   6.283418   4.583583   5.008824   5.938309
    13  H    5.039637   6.024369   4.217466   5.091032   6.103639
    14  C    6.743927   7.795789   6.116258   6.404059   7.266965
    15  H    7.471939   8.500021   6.743927   7.266965   8.178201
    16  C    7.322691   8.388851   6.855461   6.743927   7.471939
    17  H    8.388851   9.455011   7.913385   7.795789   8.500021
    18  H    6.855461   7.913385   6.530719   6.116258   6.743927
                    6          7          8          9         10
     6  C    0.000000
     7  H    1.067095   0.000000
     8  C    1.355114   2.102978   0.000000
     9  H    2.094497   3.036891   1.054088   0.000000
    10  C    2.501212   2.694527   1.520167   2.230151   0.000000
    11  H    2.734821   2.496808   2.230151   3.139815   1.054088
    12  C    3.724767   4.040519   2.501212   2.734821   1.355114
    13  H    4.040519   4.588581   2.694527   2.496808   2.102978
    14  C    5.008824   5.091032   3.920861   4.264646   2.507645
    15  H    5.938309   6.103639   4.759879   4.931177   3.455502
    16  C    5.240187   5.039637   4.421414   5.021899   2.901285
    17  H    6.283418   6.024369   5.487571   6.073660   3.967446
    18  H    4.583583   4.217466   3.998810   4.776509   2.547571
                   11         12         13         14         15
    11  H    0.000000
    12  C    2.094497   0.000000
    13  H    3.036891   1.067095   0.000000
    14  C    2.692211   1.534475   2.261618   0.000000
    15  H    3.748893   2.261618   2.591259   1.067095   0.000000
    16  C    2.553556   2.507645   3.455502   1.355114   2.102978
    17  H    3.569101   3.486290   4.351222   2.104822   2.426882
    18  H    1.854542   2.693113   3.750422   2.102978   3.047308
                   16         17         18
    16  C    0.000000
    17  H    1.066161   0.000000
    18  H    1.067095   1.844477   0.000000
 Stoichiometry    C8H10
 Framework group  C2H[SGH(C8H10)]
 Deg. of freedom    17
 Full point group                 C2H     NOp   4
 Largest Abelian subgroup         C2H     NOp   4
 Largest concise Abelian subgroup C2      NOp   2
                         Standard orientation:                         
 ---------------------------------------------------------------------
 Center     Atomic      Atomic             Coordinates (Angstroms)
 Number     Number       Type             X           Y           Z
 ---------------------------------------------------------------------
      1          6           0        0.006649    3.661339    0.000000
      2          1           0        0.006649    4.727501    0.000000
      3          1           0       -0.920441    3.132948    0.000000
      4          6           0        1.176817    2.977935    0.000000
      5          1           0        2.103906    3.506326    0.000000
      6          6           0        1.176817    1.443459    0.000000
      7          1           0        2.103906    0.915068    0.000000
      8          6           0        0.006649    0.760054    0.000000
      9          1           0       -0.911169    1.278429    0.000000
     10          6           0       -0.006649   -0.760054    0.000000
     11          1           0        0.911169   -1.278429    0.000000
     12          6           0       -1.176817   -1.443459    0.000000
     13          1           0       -2.103906   -0.915068    0.000000
     14          6           0       -1.176817   -2.977935    0.000000
     15          1           0       -2.103906   -3.506326    0.000000
     16          6           0       -0.006649   -3.661339    0.000000
     17          1           0       -0.006649   -4.727501    0.000000
     18          1           0        0.920441   -3.132948    0.000000
 ---------------------------------------------------------------------
 Rotational constants (GHZ):      8.6456095      0.6997018      0.6473138
 Standard basis: 6-31G(d) (6D, 7F)
 There are    54 symmetry adapted basis functions of AG  symmetry.
 There are    16 symmetry adapted basis functions of BG  symmetry.
 There are    16 symmetry adapted basis functions of AU  symmetry.
 There are    54 symmetry adapted basis functions of BU  symmetry.
 Integral buffers will be    131072 words long.
 Raffenetti 2 integral format.
 Two-electron integral symmetry is turned on.
   140 basis functions,   264 primitive gaussians,   140 cartesian basis functions
    29 alpha electrons       29 beta electrons
       nuclear repulsion energy       302.7364156770 Hartrees.
 NAtoms=   18 NActive=   18 NUniq=    9 SFac= 4.00D+00 NAtFMM=   60 NAOKFM=F Big=F
 One-electron integrals computed using PRISM.
 NBasis=   140 RedAO= T  NBF=    54    16    16    54
 NBsUse=   140 1.00D-06 NBFU=    54    16    16    54
 Harris functional with IExCor=  402 diagonalized for initial guess.
 ExpMin= 1.61D-01 ExpMax= 3.05D+03 ExpMxC= 4.57D+02 IAcc=1 IRadAn=         1 AccDes= 0.00D+00
 HarFok:  IExCor=  402 AccDes= 0.00D+00 IRadAn=         1 IDoV= 1
 ScaDFX=  1.000000  1.000000  1.000000  1.000000
 FoFCou: FMM=F IPFlag=           0 FMFlag=      100000 FMFlg1=           0
         NFxFlg=           0 DoJE=T BraDBF=F KetDBF=T FulRan=T
         Omega=  0.000000  0.000000  1.000000  0.000000  0.000000 ICntrl=     500 IOpCl=  0
         NMat0=    1 NMatS0=    1 NMatT0=    0 NMatD0=    1 NMtDS0=    0 NMtDT0=    0
         I1Cent=           4 NGrid=           0.
 Petite list used in FoFCou.
 Initial guess orbital symmetries:
       Occupied  (BU) (AG) (AG) (BU) (AG) (BU) (AG) (BU) (AG) (BU)
                 (AG) (BU) (AG) (BU) (BU) (AG) (AG) (BU) (BU) (AG)
                 (AG) (BU) (BU) (AG) (AG) (AU) (BG) (AU) (BG)
       Virtual   (AU) (BG) (AU) (BG) (BU) (BU) (AG) (AG) (BU) (AG)
                 (BU) (AG) (BU) (AG) (BU) (AG) (BU) (AG) (BU) (BU)
                 (AG) (BU) (AG) (AU) (BG) (BU) (AG) (BU) (AU) (AG)
                 (BG) (BU) (AG) (AU) (AG) (BU) (BG) (BG) (AU) (AG)
                 (BU) (AG) (BU) (BU) (AG) (BU) (AG) (AG) (BU) (BU)
                 (AG) (AG) (BU) (AG) (BU) (BU) (AG) (BU) (AG) (AU)
                 (AG) (BG) (AU) (BU) (BG) (AU) (BG) (BU) (AG) (AU)
                 (BG) (AU) (AG) (AG) (BU) (BU) (AG) (BU) (AG) (BG)
                 (BU) (AU) (BU) (AG) (AG) (BG) (BU) (AG) (AU) (BU)
                 (BG) (AG) (BG) (AU) (BU) (AG) (BU) (AG) (BU) (BU)
                 (AG) (AG) (BU) (AG) (BU) (AG) (BU) (AG) (BU) (AG)
                 (BU)
 The electronic state of the initial guess is 1-AG.
 Requested convergence on RMS density matrix=1.00D-08 within 128 cycles.
 Requested convergence on MAX density matrix=1.00D-06.
 Requested convergence on             energy=1.00D-06.
 No special actions if energy rises.
 Integral accuracy reduced to 1.0D-05 until final iterations.
 Initial convergence to 1.0D-05 achieved.  Increase integral accuracy.
 SCF Done:  E(RB3LYP) =  -310.770955937     A.U. after   13 cycles
             Convg  =    0.8274D-08             -V/T =  2.0103

 **********************************************************************

            Population analysis using the SCF density.

 **********************************************************************

 Orbital symmetries:
       Occupied  (AG) (BU) (AG) (BU) (AG) (BU) (BU) (AG) (AG) (BU)
                 (AG) (BU) (AG) (BU) (BU) (AG) (AG) (BU) (BU) (AG)
                 (AG) (BU) (BU) (AG) (AG) (AU) (BG) (AU) (BG)
       Virtual   (AU) (BG) (AU) (BU) (BG) (BU) (AG) (AG) (AG) (BU)
                 (BU) (AG) (AG) (BU) (BU) (AG) (BU) (AG) (BU) (BU)
                 (AG) (BU) (AG) (AU) (BG) (AG) (BU) (AU) (BU) (AG)
                 (BG) (BU) (AU) (AG) (BG) (AG) (BU) (BG) (AU) (AG)
                 (BU) (BU) (AG) (BU) (AG) (BU) (AG) (AG) (BU) (BU)
                 (AG) (AG) (BU) (BU) (AG) (AG) (BU) (BU) (AG) (AG)
                 (AU) (BG) (BU) (AU) (BG) (AU) (BU) (BG) (AG) (AU)
                 (BG) (AU) (AG) (AG) (BU) (BU) (AG) (BU) (AG) (BG)
                 (BU) (AU) (BU) (AG) (AG) (BG) (BU) (AG) (AU) (BU)
                 (BG) (AG) (BG) (AU) (BU) (AG) (BU) (AG) (BU) (BU)
                 (AG) (AG) (BU) (AG) (BU) (AG) (BU) (AG) (BU) (AG)
                 (BU)
 The electronic state is 1-AG.
 Alpha  occ. eigenvalues --  -10.19600 -10.19600 -10.19334 -10.19331 -10.19230
 Alpha  occ. eigenvalues --  -10.19210 -10.17825 -10.17825  -0.81413  -0.78902
 Alpha  occ. eigenvalues --   -0.74473  -0.70100  -0.62419  -0.59750  -0.54550
 Alpha  occ. eigenvalues --   -0.53175  -0.49505  -0.46333  -0.44595  -0.42427
 Alpha  occ. eigenvalues --   -0.40599  -0.37779  -0.36620  -0.36118  -0.33717
 Alpha  occ. eigenvalues --   -0.33389  -0.30244  -0.25294  -0.19733
 Alpha virt. eigenvalues --   -0.05302   0.00339   0.07502   0.09794   0.10615
 Alpha virt. eigenvalues --    0.11843   0.12769   0.12935   0.16844   0.16899
 Alpha virt. eigenvalues --    0.18597   0.19771   0.22346   0.22775   0.28881
 Alpha virt. eigenvalues --    0.30190   0.31897   0.35160   0.35462   0.43694
 Alpha virt. eigenvalues --    0.45615   0.49393   0.50463   0.52217   0.53819
 Alpha virt. eigenvalues --    0.56840   0.57748   0.58761   0.59204   0.60280
 Alpha virt. eigenvalues --    0.60846   0.62979   0.64393   0.65470   0.66179
 Alpha virt. eigenvalues --    0.67366   0.67636   0.68171   0.73285   0.83331
 Alpha virt. eigenvalues --    0.84973   0.86151   0.86485   0.89747   0.90667
 Alpha virt. eigenvalues --    0.91049   0.91826   0.94033   0.95809   0.98364
 Alpha virt. eigenvalues --    1.00434   1.03278   1.04474   1.07930   1.07970
 Alpha virt. eigenvalues --    1.13179   1.13643   1.22199   1.22854   1.29591
 Alpha virt. eigenvalues --    1.33733   1.34171   1.37613   1.37939   1.47882
 Alpha virt. eigenvalues --    1.48304   1.49837   1.51014   1.52840   1.61683
 Alpha virt. eigenvalues --    1.69220   1.71401   1.74750   1.77759   1.78366
 Alpha virt. eigenvalues --    1.95468   1.95773   1.95958   1.97774   1.98560
 Alpha virt. eigenvalues --    2.06229   2.13527   2.15635   2.17186   2.20216
 Alpha virt. eigenvalues --    2.20513   2.24356   2.29010   2.29942   2.31106
 Alpha virt. eigenvalues --    2.35712   2.46511   2.47113   2.48976   2.58249
 Alpha virt. eigenvalues --    2.58290   2.62113   2.70978   2.80683   2.85537
 Alpha virt. eigenvalues --    2.93855   3.02564   3.07470   4.05747   4.06756
 Alpha virt. eigenvalues --    4.11527   4.17174   4.18530   4.31639   4.43745
 Alpha virt. eigenvalues --    4.52503
          Condensed to atoms (all electrons):
              1          2          3          4          5          6
     1  C    5.051165   0.368004   0.363857   0.653623  -0.054660  -0.038460
     2  H    0.368004   0.555751  -0.040682  -0.025238  -0.006634   0.004516
     3  H    0.363857  -0.040682   0.564949  -0.030475   0.006259  -0.018960
     4  C    0.653623  -0.025238  -0.030475   4.798975   0.366532   0.403116
     5  H   -0.054660  -0.006634   0.006259   0.366532   0.594539  -0.039961
     6  C   -0.038460   0.004516  -0.018960   0.403116  -0.039961   4.942582
     7  H    0.005027  -0.000126  -0.000021  -0.043031  -0.003561   0.364152
     8  C   -0.021776   0.000259   0.005461  -0.021344   0.004352   0.609028
     9  H    0.004070  -0.000026   0.005307  -0.013562   0.000010  -0.051481
    10  C    0.000547  -0.000010   0.000225   0.003437  -0.000093  -0.017231
    11  H   -0.000002   0.000000   0.000003   0.000078   0.000000  -0.004927
    12  C    0.000017   0.000000  -0.000017  -0.000190   0.000001   0.003033
    13  H   -0.000004   0.000000   0.000000  -0.000004   0.000000   0.000423
    14  C    0.000000   0.000000   0.000000   0.000001   0.000000  -0.000190
    15  H    0.000000   0.000000   0.000000   0.000000   0.000000   0.000001
    16  C    0.000000   0.000000   0.000000   0.000000   0.000000   0.000017
    17  H    0.000000   0.000000   0.000000   0.000000   0.000000   0.000000
    18  H    0.000000   0.000000   0.000000   0.000000   0.000000  -0.000017
              7          8          9         10         11         12
     1  C    0.005027  -0.021776   0.004070   0.000547  -0.000002   0.000017
     2  H   -0.000126   0.000259  -0.000026  -0.000010   0.000000   0.000000
     3  H   -0.000021   0.005461   0.005307   0.000225   0.000003  -0.000017
     4  C   -0.043031  -0.021344  -0.013562   0.003437   0.000078  -0.000190
     5  H   -0.003561   0.004352   0.000010  -0.000093   0.000000   0.000001
     6  C    0.364152   0.609028  -0.051481  -0.017231  -0.004927   0.003033
     7  H    0.600979  -0.055768   0.006554  -0.009044   0.004315   0.000423
     8  C   -0.055768   4.878007   0.357798   0.413543  -0.045832  -0.017231
     9  H    0.006554   0.357798   0.604391  -0.045832   0.004379  -0.004927
    10  C   -0.009044   0.413543  -0.045832   4.878007   0.357798   0.609028
    11  H    0.004315  -0.045832   0.004379   0.357798   0.604391  -0.051481
    12  C    0.000423  -0.017231  -0.004927   0.609028  -0.051481   4.942582
    13  H    0.000013  -0.009044   0.004315  -0.055768   0.006554   0.364152
    14  C   -0.000004   0.003437   0.000078  -0.021344  -0.013562   0.403116
    15  H    0.000000  -0.000093   0.000000   0.004352   0.000010  -0.039961
    16  C   -0.000004   0.000547  -0.000002  -0.021776   0.004070  -0.038460
    17  H    0.000000  -0.000010   0.000000   0.000259  -0.000026   0.004516
    18  H    0.000000   0.000225   0.000003   0.005461   0.005307  -0.018960
             13         14         15         16         17         18
     1  C   -0.000004   0.000000   0.000000   0.000000   0.000000   0.000000
     2  H    0.000000   0.000000   0.000000   0.000000   0.000000   0.000000
     3  H    0.000000   0.000000   0.000000   0.000000   0.000000   0.000000
     4  C   -0.000004   0.000001   0.000000   0.000000   0.000000   0.000000
     5  H    0.000000   0.000000   0.000000   0.000000   0.000000   0.000000
     6  C    0.000423  -0.000190   0.000001   0.000017   0.000000  -0.000017
     7  H    0.000013  -0.000004   0.000000  -0.000004   0.000000   0.000000
     8  C   -0.009044   0.003437  -0.000093   0.000547  -0.000010   0.000225
     9  H    0.004315   0.000078   0.000000  -0.000002   0.000000   0.000003
    10  C   -0.055768  -0.021344   0.004352  -0.021776   0.000259   0.005461
    11  H    0.006554  -0.013562   0.000010   0.004070  -0.000026   0.005307
    12  C    0.364152   0.403116  -0.039961  -0.038460   0.004516  -0.018960
    13  H    0.600979  -0.043031  -0.003561   0.005027  -0.000126  -0.000021
    14  C   -0.043031   4.798975   0.366532   0.653623  -0.025238  -0.030475
    15  H   -0.003561   0.366532   0.594539  -0.054660  -0.006634   0.006259
    16  C    0.005027   0.653623  -0.054660   5.051165   0.368004   0.363857
    17  H   -0.000126  -0.025238  -0.006634   0.368004   0.555751  -0.040682
    18  H   -0.000021  -0.030475   0.006259   0.363857  -0.040682   0.564949
 Mulliken atomic charges:
              1
     1  C   -0.331408
     2  H    0.144187
     3  H    0.144096
     4  C   -0.091918
     5  H    0.133217
     6  C   -0.155641
     7  H    0.130098
     8  C   -0.101556
     9  H    0.128925
    10  C   -0.101556
    11  H    0.128925
    12  C   -0.155641
    13  H    0.130098
    14  C   -0.091918
    15  H    0.133217
    16  C   -0.331408
    17  H    0.144187
    18  H    0.144096
 Sum of Mulliken atomic charges =   0.00000
 Mulliken charges with hydrogens summed into heavy atoms:
              1
     1  C   -0.043125
     4  C    0.041299
     6  C   -0.025544
     8  C    0.027370
    10  C    0.027370
    12  C   -0.025544
    14  C    0.041299
    16  C   -0.043125
 Sum of Mulliken charges with hydrogens summed into heavy atoms =   0.00000
 Electronic spatial extent (au):  <R**2>=           1702.5372
 Charge=              0.0000 electrons
 Dipole moment (field-independent basis, Debye):
    X=              0.0000    Y=              0.0000    Z=              0.0000  Tot=              0.0000
 Quadrupole moment (field-independent basis, Debye-Ang):
   XX=            -42.8454   YY=            -44.5044   ZZ=            -53.7743
   XY=              0.4693   XZ=              0.0000   YZ=              0.0000
 Traceless Quadrupole moment (field-independent basis, Debye-Ang):
   XX=              4.1960   YY=              2.5370   ZZ=             -6.7329
   XY=              0.4693   XZ=              0.0000   YZ=              0.0000
 Octapole moment (field-independent basis, Debye-Ang**2):
  XXX=              0.0000  YYY=              0.0000  ZZZ=              0.0000  XYY=              0.0000
  XXY=              0.0000  XXZ=              0.0000  XZZ=              0.0000  YZZ=              0.0000
  YYZ=              0.0000  XYZ=              0.0000
 Hexadecapole moment (field-independent basis, Debye-Ang**3):
 XXXX=           -281.6227 YYYY=          -1825.3416 ZZZZ=            -55.9668 XXXY=           -159.3173
 XXXZ=              0.0000 YYYX=           -154.8577 YYYZ=              0.0000 ZZZX=              0.0000
 ZZZY=              0.0000 XXYY=           -350.3885 XXZZ=            -64.4953 YYZZ=           -382.2899
 XXYZ=              0.0000 YYXZ=              0.0000 ZZXY=            -67.8687
 N-N= 3.027364156770D+02 E-N=-1.323975497894D+03  KE= 3.075967420358D+02
 Symmetry AG   KE= 1.511147219291D+02
 Symmetry BG   KE= 4.392313697666D+00
 Symmetry AU   KE= 4.069269071409D+00
 Symmetry BU   KE= 1.480204373376D+02
 Calling FoFJK, ICntrl=      2127 FMM=F ISym2X=1 I1Cent= 0 IOpClX= 0 NMat=1 NMatS=1 NMatT=0.
 ***** Axes restored to original set *****
 -------------------------------------------------------------------
 Center     Atomic                   Forces (Hartrees/Bohr)
 Number     Number              X              Y              Z
 -------------------------------------------------------------------
      1        6          -0.034996888    0.002387095    0.000000000
      2        1           0.006225850   -0.012972897    0.000000000
      3        1           0.013204921    0.001253693    0.000000000
      4        6           0.024184034    0.041029022    0.000000000
      5        1          -0.012760393   -0.006890087    0.000000000
      6        6           0.032152480   -0.037599884    0.000000000
      7        1          -0.014184855    0.001820136    0.000000000
      8        6          -0.055180330    0.048396143    0.000000000
      9        1           0.022715470   -0.000009936    0.000000000
     10        6           0.055180330   -0.048396143    0.000000000
     11        1          -0.022715470    0.000009936    0.000000000
     12        6          -0.032152480    0.037599884    0.000000000
     13        1           0.014184855   -0.001820136    0.000000000
     14        6          -0.024184034   -0.041029022    0.000000000
     15        1           0.012760393    0.006890087    0.000000000
     16        6           0.034996888   -0.002387095    0.000000000
     17        1          -0.006225850    0.012972897    0.000000000
     18        1          -0.013204921   -0.001253693    0.000000000
 -------------------------------------------------------------------
 Cartesian Forces:  Max     0.055180330 RMS     0.021642836

 GradGradGradGradGradGradGradGradGradGradGradGradGradGradGradGradGradGrad
 Berny optimization.
 Internal  Forces:  Max     0.040323362 RMS     0.013114057
 Search for a local minimum.
 Step number   1 out of a maximum of   79
 All quantities printed in internal units (Hartrees-Bohrs-Radians)
 Mixed Optimization -- RFO/linear search
 Second derivative matrix not updated -- first step.
 ITU=  0
     Eigenvalues ---    0.00310   0.00310   0.00499   0.01500   0.01500
     Eigenvalues ---    0.01500   0.01500   0.01605   0.01605   0.02683
     Eigenvalues ---    0.02683   0.02683   0.02683   0.02683   0.02683
     Eigenvalues ---    0.16000   0.16000   0.16000   0.16000   0.16000
     Eigenvalues ---    0.16000   0.16000   0.16000   0.16000   0.16000
     Eigenvalues ---    0.22000   0.22000   0.22000   0.22000   0.22000
     Eigenvalues ---    0.22000   0.29014   0.29014   0.30350   0.37600
     Eigenvalues ---    0.37600   0.37600   0.37600   0.37600   0.37600
     Eigenvalues ---    0.37719   0.37719   0.39316   0.39316   0.53947
     Eigenvalues ---    0.53947   0.53947   0.53947
 RFO step:  Lambda=-3.96199938D-02 EMin= 3.09906346D-03
 Linear search not attempted -- first point.
 Maximum step size (   0.300) exceeded in Quadratic search.
    -- Step size scaled by   0.806
 Iteration  1 RMS(Cart)=  0.14769529 RMS(Int)=  0.00565337
 Iteration  2 RMS(Cart)=  0.00831518 RMS(Int)=  0.00001742
 Iteration  3 RMS(Cart)=  0.00004672 RMS(Int)=  0.00000000
 Iteration  4 RMS(Cart)=  0.00000000 RMS(Int)=  0.00000000
 ClnCor:  largest displacement from symmetrization is 7.54D-10 for atom    13.
 Variable       Old X    -DE/DX   Delta X   Delta X   Delta X     New X
                                 (Linear)    (Quad)   (Total)
    R1        2.01475   0.01397   0.00000   0.02700   0.02700   2.04175
    R2        2.01652   0.01074   0.00000   0.02081   0.02081   2.03733
    R3        2.56079  -0.01178   0.00000  -0.01639  -0.01639   2.54440
    R4        2.01652   0.01413   0.00000   0.02739   0.02739   2.04391
    R5        2.89974  -0.02513   0.00000  -0.06140  -0.06140   2.83833
    R6        2.01652   0.01405   0.00000   0.02725   0.02725   2.04376
    R7        2.56079  -0.00293   0.00000  -0.00408  -0.00408   2.55672
    R8        1.99194   0.02164   0.00000   0.04028   0.04028   2.03222
    R9        2.87270  -0.04032   0.00000  -0.09468  -0.09468   2.77801
   R10        1.99194   0.02164   0.00000   0.04028   0.04028   2.03222
   R11        2.56079  -0.00293   0.00000  -0.00408  -0.00408   2.55672
   R12        2.01652   0.01405   0.00000   0.02725   0.02725   2.04376
   R13        2.89974  -0.02513   0.00000  -0.06140  -0.06140   2.83833
   R14        2.01652   0.01413   0.00000   0.02739   0.02739   2.04391
   R15        2.56079  -0.01178   0.00000  -0.01639  -0.01639   2.54440
   R16        2.01475   0.01397   0.00000   0.02700   0.02700   2.04175
   R17        2.01652   0.01074   0.00000   0.02081   0.02081   2.03733
    A1        2.08882  -0.00756   0.00000  -0.03052  -0.03052   2.05830
    A2        2.09939  -0.00058   0.00000  -0.00236  -0.00236   2.09702
    A3        2.09498   0.00815   0.00000   0.03288   0.03288   2.12786
    A4        2.09498  -0.01250   0.00000  -0.03571  -0.03571   2.05926
    A5        2.09939   0.03159   0.00000   0.09803   0.09803   2.19741
    A6        2.08882  -0.01909   0.00000  -0.06231  -0.06231   2.02651
    A7        2.08882  -0.01773   0.00000  -0.05750  -0.05750   2.03132
    A8        2.09939   0.03012   0.00000   0.09348   0.09348   2.19286
    A9        2.09498  -0.01239   0.00000  -0.03597  -0.03597   2.05900
   A10        2.09888   0.00391   0.00000   0.01855   0.01855   2.11743
   A11        2.10813   0.00596   0.00000   0.01849   0.01849   2.12662
   A12        2.07618  -0.00987   0.00000  -0.03704  -0.03704   2.03913
   A13        2.07618  -0.00987   0.00000  -0.03704  -0.03704   2.03913
   A14        2.10813   0.00596   0.00000   0.01849   0.01849   2.12662
   A15        2.09888   0.00391   0.00000   0.01855   0.01855   2.11743
   A16        2.09498  -0.01239   0.00000  -0.03597  -0.03597   2.05900
   A17        2.09939   0.03012   0.00000   0.09348   0.09348   2.19286
   A18        2.08882  -0.01773   0.00000  -0.05750  -0.05750   2.03132
   A19        2.08882  -0.01909   0.00000  -0.06231  -0.06231   2.02651
   A20        2.09939   0.03159   0.00000   0.09803   0.09803   2.19741
   A21        2.09498  -0.01250   0.00000  -0.03571  -0.03571   2.05926
   A22        2.09939  -0.00058   0.00000  -0.00236  -0.00236   2.09702
   A23        2.09498   0.00815   0.00000   0.03288   0.03288   2.12786
   A24        2.08882  -0.00756   0.00000  -0.03052  -0.03052   2.05830
    D1        0.00000   0.00000   0.00000   0.00000   0.00000   0.00000
    D2        3.14159   0.00000   0.00000   0.00000   0.00000   3.14159
    D3        3.14159   0.00000   0.00000   0.00000   0.00000   3.14159
    D4        0.00000   0.00000   0.00000   0.00000   0.00000   0.00000
    D5        3.14159   0.00000   0.00000   0.00000   0.00000   3.14159
    D6        0.00000   0.00000   0.00000   0.00000   0.00000   0.00000
    D7        0.00000   0.00000   0.00000   0.00000   0.00000   0.00000
    D8        3.14159   0.00000   0.00000   0.00000   0.00000   3.14159
    D9        0.00000   0.00000   0.00000   0.00000   0.00000   0.00000
   D10        3.14159   0.00000   0.00000   0.00000   0.00000   3.14159
   D11        3.14159   0.00000   0.00000   0.00000   0.00000   3.14159
   D12        0.00000   0.00000   0.00000   0.00000   0.00000   0.00000
   D13        0.00000   0.00000   0.00000   0.00000   0.00000   0.00000
   D14        3.14159   0.00000   0.00000   0.00000   0.00000   3.14159
   D15        3.14159   0.00000   0.00000   0.00000   0.00000   3.14159
   D16        0.00000   0.00000   0.00000   0.00000   0.00000   0.00000
   D17        0.00000   0.00000   0.00000   0.00000   0.00000   0.00000
   D18        3.14159   0.00000   0.00000   0.00000   0.00000   3.14159
   D19        3.14159   0.00000   0.00000   0.00000   0.00000   3.14159
   D20        0.00000   0.00000   0.00000   0.00000   0.00000   0.00000
   D21        3.14159   0.00000   0.00000   0.00000   0.00000   3.14159
   D22        0.00000   0.00000   0.00000   0.00000   0.00000   0.00000
   D23        0.00000   0.00000   0.00000   0.00000   0.00000   0.00000
   D24        3.14159   0.00000   0.00000   0.00000   0.00000   3.14159
   D25        3.14159   0.00000   0.00000   0.00000   0.00000   3.14159
   D26        0.00000   0.00000   0.00000   0.00000   0.00000   0.00000
   D27        0.00000   0.00000   0.00000   0.00000   0.00000   0.00000
   D28        3.14159   0.00000   0.00000   0.00000   0.00000   3.14159
         Item               Value     Threshold  Converged?
 Maximum Force            0.040323     0.000450     NO 
 RMS     Force            0.013114     0.000300     NO 
 Maximum Displacement     0.520083     0.001800     NO 
 RMS     Displacement     0.150214     0.001200     NO 
 Predicted change in Energy=-2.084505D-02
 GradGradGradGradGradGradGradGradGradGradGradGradGradGradGradGradGradGrad

                          Input orientation:                          
 ---------------------------------------------------------------------
 Center     Atomic      Atomic             Coordinates (Angstroms)
 Number     Number       Type             X           Y           Z
 ---------------------------------------------------------------------
      1          6           0        0.742997   -3.740483    0.000000
      2          1           0        0.835008   -4.817006    0.000000
      3          1           0        1.649042   -3.156189    0.000000
      4          6           0       -0.474642   -3.165807    0.000000
      5          1           0       -1.341297   -3.812913    0.000000
      6          6           0       -0.751891   -1.689636    0.000000
      7          1           0       -1.792805   -1.396089    0.000000
      8          6           0        0.183200   -0.711834    0.000000
      9          1           0        1.233513   -0.942783    0.000000
     10          6           0       -0.183200    0.711834    0.000000
     11          1           0       -1.233513    0.942783    0.000000
     12          6           0        0.751891    1.689636    0.000000
     13          1           0        1.792805    1.396089    0.000000
     14          6           0        0.474642    3.165807    0.000000
     15          1           0        1.341297    3.812913    0.000000
     16          6           0       -0.742997    3.740483    0.000000
     17          1           0       -0.835008    4.817006    0.000000
     18          1           0       -1.649042    3.156189    0.000000
 ---------------------------------------------------------------------
                    Distance matrix (angstroms):
                    1          2          3          4          5
     1  C    0.000000
     2  H    1.080448   0.000000
     3  H    1.078108   1.849585   0.000000
     4  C    1.346439   2.107520   2.123706   0.000000
     5  H    2.085552   2.396769   3.061603   1.081590   0.000000
     6  C    2.537846   3.506949   2.813407   1.501981   2.203566
     7  H    3.453472   4.313707   3.865780   2.206684   2.458637
     8  C    3.079949   4.156595   2.850186   2.540617   3.455543
     9  H    2.840375   3.894664   2.252072   2.803503   3.855813
    10  C    4.547634   5.621816   4.280037   3.888578   4.670602
    11  H    5.083264   6.119963   5.011057   4.178085   4.756917
    12  C    5.430126   6.507172   4.928174   5.007964   5.887230
    13  H    5.242754   6.286487   4.554548   5.094331   6.079169
    14  C    6.911501   7.990942   6.430151   6.402380   7.211114
    15  H    7.577054   8.644757   6.975893   7.211114   8.083905
    16  C    7.627124   8.701765   7.299721   6.911501   7.577054
    17  H    8.701765   9.777685   8.351187   7.990942   8.644757
    18  H    7.299721   8.351187   7.122041   6.430151   6.975893
                    6          7          8          9         10
     6  C    0.000000
     7  H    1.081513   0.000000
     8  C    1.352956   2.091124   0.000000
     9  H    2.121230   3.060080   1.075404   0.000000
    10  C    2.467887   2.652201   1.470062   2.178265   0.000000
    11  H    2.676114   2.404814   2.178265   3.105089   1.075404
    12  C    3.698761   3.999647   2.467887   2.676114   1.352956
    13  H    3.999647   4.544541   2.652201   2.404814   2.091124
    14  C    5.007964   5.094331   3.888578   4.178085   2.540617
    15  H    5.887230   6.079169   4.670602   4.756917   3.455543
    16  C    5.430126   5.242754   4.547634   5.083264   3.079949
    17  H    6.507172   6.286487   5.621816   6.119963   4.156595
    18  H    4.928174   4.554548   4.280037   5.011057   2.850186
                   11         12         13         14         15
    11  H    0.000000
    12  C    2.121230   0.000000
    13  H    3.060080   1.081513   0.000000
    14  C    2.803503   1.501981   2.206684   0.000000
    15  H    3.855813   2.203566   2.458637   1.081590   0.000000
    16  C    2.840375   2.537846   3.453472   1.346439   2.085552
    17  H    3.894664   3.506949   4.313707   2.107520   2.396769
    18  H    2.252072   2.813407   3.865780   2.123706   3.061603
                   16         17         18
    16  C    0.000000
    17  H    1.080448   0.000000
    18  H    1.078108   1.849585   0.000000
 Stoichiometry    C8H10
 Framework group  C2H[SGH(C8H10)]
 Deg. of freedom    17
 Full point group                 C2H     NOp   4
 Largest Abelian subgroup         C2H     NOp   4
 Largest concise Abelian subgroup C2      NOp   2
                         Standard orientation:                         
 ---------------------------------------------------------------------
 Center     Atomic      Atomic             Coordinates (Angstroms)
 Number     Number       Type             X           Y           Z
 ---------------------------------------------------------------------
      1          6           0        0.034384    3.813407    0.000000
      2          1           0        0.163553    4.886106    0.000000
      3          1           0       -0.971671    3.425890    0.000000
      4          6           0        1.109460    3.002785    0.000000
      5          1           0        2.089744    3.459820    0.000000
      6          6           0        1.080252    1.501087    0.000000
      7          1           0        2.039564    1.001695    0.000000
      8          6           0       -0.034384    0.734226    0.000000
      9          1           0       -1.015647    1.174247    0.000000
     10          6           0        0.034384   -0.734226    0.000000
     11          1           0        1.015647   -1.174247    0.000000
     12          6           0       -1.080252   -1.501087    0.000000
     13          1           0       -2.039564   -1.001695    0.000000
     14          6           0       -1.109460   -3.002785    0.000000
     15          1           0       -2.089744   -3.459820    0.000000
     16          6           0       -0.034384   -3.813407    0.000000
     17          1           0       -0.163553   -4.886106    0.000000
     18          1           0        0.971671   -3.425890    0.000000
 ---------------------------------------------------------------------
 Rotational constants (GHZ):      9.5396532      0.6658592      0.6224152
 Standard basis: 6-31G(d) (6D, 7F)
 There are    54 symmetry adapted basis functions of AG  symmetry.
 There are    16 symmetry adapted basis functions of BG  symmetry.
 There are    16 symmetry adapted basis functions of AU  symmetry.
 There are    54 symmetry adapted basis functions of BU  symmetry.
 Integral buffers will be    131072 words long.
 Raffenetti 2 integral format.
 Two-electron integral symmetry is turned on.
   140 basis functions,   264 primitive gaussians,   140 cartesian basis functions
    29 alpha electrons       29 beta electrons
       nuclear repulsion energy       300.8813959393 Hartrees.
 NAtoms=   18 NActive=   18 NUniq=    9 SFac= 4.00D+00 NAtFMM=   60 NAOKFM=F Big=F
 One-electron integrals computed using PRISM.
 NBasis=   140 RedAO= T  NBF=    54    16    16    54
 NBsUse=   140 1.00D-06 NBFU=    54    16    16    54
 Initial guess read from the read-write file.
 B after Tr=     0.000000    0.000000    0.000000
         Rot=    1.000000    0.000000    0.000000    0.000000 Ang=   0.00 deg.
 Initial guess orbital symmetries:
       Occupied  (AG) (BU) (AG) (BU) (AG) (BU) (BU) (AG) (AG) (BU)
                 (AG) (BU) (AG) (BU) (BU) (AG) (AG) (BU) (BU) (AG)
                 (AG) (BU) (BU) (AG) (AG) (AU) (BG) (AU) (BG)
       Virtual   (AU) (BG) (AU) (BU) (BG) (BU) (AG) (AG) (AG) (BU)
                 (BU) (AG) (AG) (BU) (BU) (AG) (BU) (AG) (BU) (BU)
                 (AG) (BU) (AG) (AU) (BG) (AG) (BU) (AU) (BU) (AG)
                 (BG) (BU) (AU) (AG) (BG) (AG) (BU) (BG) (AU) (AG)
                 (BU) (BU) (AG) (BU) (AG) (BU) (AG) (AG) (BU) (BU)
                 (AG) (AG) (BU) (BU) (AG) (AG) (BU) (BU) (AG) (AG)
                 (AU) (BG) (BU) (AU) (BG) (AU) (BU) (BG) (AG) (AU)
                 (BG) (AU) (AG) (AG) (BU) (BU) (AG) (BU) (AG) (BG)
                 (BU) (AU) (BU) (AG) (AG) (BG) (BU) (AG) (AU) (BU)
                 (BG) (AG) (BG) (AU) (BU) (AG) (BU) (AG) (BU) (BU)
                 (AG) (AG) (BU) (AG) (BU) (AG) (BU) (AG) (BU) (AG)
                 (BU)
 Harris functional with IExCor=  402 diagonalized for initial guess.
 ExpMin= 1.61D-01 ExpMax= 3.05D+03 ExpMxC= 4.57D+02 IAcc=1 IRadAn=         1 AccDes= 0.00D+00
 HarFok:  IExCor=  402 AccDes= 0.00D+00 IRadAn=         1 IDoV= 1
 ScaDFX=  1.000000  1.000000  1.000000  1.000000
 FoFCou: FMM=F IPFlag=           0 FMFlag=      100000 FMFlg1=           0
         NFxFlg=           0 DoJE=T BraDBF=F KetDBF=T FulRan=T
         Omega=  0.000000  0.000000  1.000000  0.000000  0.000000 ICntrl=     500 IOpCl=  0
         NMat0=    1 NMatS0=    1 NMatT0=    0 NMatD0=    1 NMtDS0=    0 NMtDT0=    0
         I1Cent=           4 NGrid=           0.
 Petite list used in FoFCou.
 Requested convergence on RMS density matrix=1.00D-08 within 128 cycles.
 Requested convergence on MAX density matrix=1.00D-06.
 Requested convergence on             energy=1.00D-06.
 No special actions if energy rises.
 Integral accuracy reduced to 1.0D-05 until final iterations.
 Initial convergence to 1.0D-05 achieved.  Increase integral accuracy.
 SCF Done:  E(RB3LYP) =  -310.790501124     A.U. after   12 cycles
             Convg  =    0.7380D-08             -V/T =  2.0104
 Calling FoFJK, ICntrl=      2127 FMM=F ISym2X=1 I1Cent= 0 IOpClX= 0 NMat=1 NMatS=1 NMatT=0.
 ***** Axes restored to original set *****
 -------------------------------------------------------------------
 Center     Atomic                   Forces (Hartrees/Bohr)
 Number     Number              X              Y              Z
 -------------------------------------------------------------------
      1        6          -0.012927024    0.002672049    0.000000000
      2        1           0.002453907   -0.003346410    0.000000000
      3        1           0.005967010    0.001247797    0.000000000
      4        6           0.005865260    0.022601654    0.000000000
      5        1          -0.005110570   -0.001206627    0.000000000
      6        6           0.012479303   -0.025073599    0.000000000
      7        1          -0.005092951   -0.000088634    0.000000000
      8        6          -0.021562781    0.018329786    0.000000000
      9        1           0.008720663   -0.002183020    0.000000000
     10        6           0.021562781   -0.018329786    0.000000000
     11        1          -0.008720663    0.002183020    0.000000000
     12        6          -0.012479303    0.025073599    0.000000000
     13        1           0.005092951    0.000088634    0.000000000
     14        6          -0.005865260   -0.022601654    0.000000000
     15        1           0.005110570    0.001206627    0.000000000
     16        6           0.012927024   -0.002672049    0.000000000
     17        1          -0.002453907    0.003346410    0.000000000
     18        1          -0.005967010   -0.001247797    0.000000000
 -------------------------------------------------------------------
 Cartesian Forces:  Max     0.025073599 RMS     0.009610092

 GradGradGradGradGradGradGradGradGradGradGradGradGradGradGradGradGradGrad
 Berny optimization.
 Using GEDIIS/GDIIS optimizer.
 Internal  Forces:  Max     0.022284494 RMS     0.005139253
 Search for a local minimum.
 Step number   2 out of a maximum of   79
 All quantities printed in internal units (Hartrees-Bohrs-Radians)
 Mixed Optimization -- RFO/linear search
 Update second derivatives using D2CorX and points    1    2
 DE= -1.95D-02 DEPred=-2.08D-02 R= 9.38D-01
 SS=  1.41D+00  RLast= 3.00D-01 DXNew= 5.0454D-01 9.0000D-01
 Trust test= 9.38D-01 RLast= 3.00D-01 DXMaxT set to 5.05D-01
 ITU=  1  0
 Use linear search instead of GDIIS.
     Eigenvalues ---    0.00310   0.00310   0.00499   0.01513   0.01513
     Eigenvalues ---    0.01516   0.01516   0.01638   0.01638   0.02683
     Eigenvalues ---    0.02683   0.02683   0.02683   0.02683   0.02683
     Eigenvalues ---    0.15543   0.16000   0.16000   0.16000   0.16000
     Eigenvalues ---    0.16000   0.16000   0.16000   0.16000   0.16297
     Eigenvalues ---    0.20110   0.22000   0.22000   0.22000   0.22000
     Eigenvalues ---    0.23424   0.28569   0.29014   0.33240   0.37248
     Eigenvalues ---    0.37600   0.37600   0.37600   0.37600   0.37645
     Eigenvalues ---    0.37719   0.38513   0.39042   0.39316   0.53803
     Eigenvalues ---    0.53947   0.53947   0.53984
 RFO step:  Lambda=-6.22943924D-03 EMin= 3.09906346D-03
 Quartic linear search produced a step of  0.55410.
 Iteration  1 RMS(Cart)=  0.04537438 RMS(Int)=  0.00088577
 Iteration  2 RMS(Cart)=  0.00133209 RMS(Int)=  0.00000046
 Iteration  3 RMS(Cart)=  0.00000068 RMS(Int)=  0.00000000
 ClnCor:  largest displacement from symmetrization is 3.10D-10 for atom    16.
 Variable       Old X    -DE/DX   Delta X   Delta X   Delta X     New X
                                 (Linear)    (Quad)   (Total)
    R1        2.04175   0.00354   0.01496   0.00223   0.01719   2.05894
    R2        2.03733   0.00569   0.01153   0.01376   0.02529   2.06262
    R3        2.54440  -0.00432  -0.00908  -0.00469  -0.01377   2.53063
    R4        2.04391   0.00482   0.01518   0.00728   0.02245   2.06636
    R5        2.83833  -0.02228  -0.03402  -0.09004  -0.12406   2.71427
    R6        2.04376   0.00488   0.01510   0.00759   0.02268   2.06645
    R7        2.55672  -0.00020  -0.00226   0.00133  -0.00093   2.55579
    R8        2.03222   0.00899   0.02232   0.01675   0.03907   2.07129
    R9        2.77801  -0.01484  -0.05246  -0.03305  -0.08552   2.69250
   R10        2.03222   0.00899   0.02232   0.01675   0.03907   2.07129
   R11        2.55672  -0.00020  -0.00226   0.00133  -0.00093   2.55579
   R12        2.04376   0.00488   0.01510   0.00759   0.02268   2.06645
   R13        2.83833  -0.02228  -0.03402  -0.09004  -0.12406   2.71427
   R14        2.04391   0.00482   0.01518   0.00728   0.02245   2.06636
   R15        2.54440  -0.00432  -0.00908  -0.00469  -0.01377   2.53063
   R16        2.04175   0.00354   0.01496   0.00223   0.01719   2.05894
   R17        2.03733   0.00569   0.01153   0.01376   0.02529   2.06262
    A1        2.05830  -0.00295  -0.01691  -0.01595  -0.03286   2.02544
    A2        2.09702   0.00145  -0.00131   0.01445   0.01314   2.11017
    A3        2.12786   0.00150   0.01822   0.00150   0.01972   2.14758
    A4        2.05926   0.00022  -0.01979   0.02190   0.00212   2.06138
    A5        2.19741   0.00385   0.05432  -0.01401   0.04031   2.23772
    A6        2.02651  -0.00406  -0.03453  -0.00790  -0.04242   1.98409
    A7        2.03132  -0.00330  -0.03186  -0.00297  -0.03483   1.99649
    A8        2.19286   0.00359   0.05180  -0.01386   0.03793   2.23080
    A9        2.05900  -0.00030  -0.01993   0.01683  -0.00310   2.05590
   A10        2.11743  -0.00299   0.01028  -0.02791  -0.01763   2.09980
   A11        2.12662   0.00545   0.01024   0.02978   0.04002   2.16664
   A12        2.03913  -0.00246  -0.02052  -0.00186  -0.02239   2.01675
   A13        2.03913  -0.00246  -0.02052  -0.00186  -0.02239   2.01675
   A14        2.12662   0.00545   0.01024   0.02978   0.04002   2.16664
   A15        2.11743  -0.00299   0.01028  -0.02791  -0.01763   2.09980
   A16        2.05900  -0.00030  -0.01993   0.01683  -0.00310   2.05590
   A17        2.19286   0.00359   0.05180  -0.01386   0.03793   2.23080
   A18        2.03132  -0.00330  -0.03186  -0.00297  -0.03483   1.99649
   A19        2.02651  -0.00406  -0.03453  -0.00790  -0.04242   1.98409
   A20        2.19741   0.00385   0.05432  -0.01401   0.04031   2.23772
   A21        2.05926   0.00022  -0.01979   0.02190   0.00212   2.06138
   A22        2.09702   0.00145  -0.00131   0.01445   0.01314   2.11017
   A23        2.12786   0.00150   0.01822   0.00150   0.01972   2.14758
   A24        2.05830  -0.00295  -0.01691  -0.01595  -0.03286   2.02544
    D1        0.00000   0.00000   0.00000   0.00000   0.00000   0.00000
    D2        3.14159   0.00000   0.00000   0.00000   0.00000   3.14159
    D3        3.14159   0.00000   0.00000   0.00000   0.00000   3.14159
    D4        0.00000   0.00000   0.00000   0.00000   0.00000   0.00000
    D5        3.14159   0.00000   0.00000   0.00000   0.00000   3.14159
    D6        0.00000   0.00000   0.00000   0.00000   0.00000   0.00000
    D7        0.00000   0.00000   0.00000   0.00000   0.00000   0.00000
    D8        3.14159   0.00000   0.00000   0.00000   0.00000   3.14159
    D9        0.00000   0.00000   0.00000   0.00000   0.00000   0.00000
   D10        3.14159   0.00000   0.00000   0.00000   0.00000   3.14159
   D11        3.14159   0.00000   0.00000   0.00000   0.00000   3.14159
   D12        0.00000   0.00000   0.00000   0.00000   0.00000   0.00000
   D13        0.00000   0.00000   0.00000   0.00000   0.00000   0.00000
   D14        3.14159   0.00000   0.00000   0.00000   0.00000   3.14159
   D15        3.14159   0.00000   0.00000   0.00000   0.00000   3.14159
   D16        0.00000   0.00000   0.00000   0.00000   0.00000   0.00000
   D17        0.00000   0.00000   0.00000   0.00000   0.00000   0.00000
   D18        3.14159   0.00000   0.00000   0.00000   0.00000   3.14159
   D19        3.14159   0.00000   0.00000   0.00000   0.00000   3.14159
   D20        0.00000   0.00000   0.00000   0.00000   0.00000   0.00000
   D21        3.14159   0.00000   0.00000   0.00000   0.00000   3.14159
   D22        0.00000   0.00000   0.00000   0.00000   0.00000   0.00000
   D23        0.00000   0.00000   0.00000   0.00000   0.00000   0.00000
   D24        3.14159   0.00000   0.00000   0.00000   0.00000   3.14159
   D25        3.14159   0.00000   0.00000   0.00000   0.00000   3.14159
   D26        0.00000   0.00000   0.00000   0.00000   0.00000   0.00000
   D27        0.00000   0.00000   0.00000   0.00000   0.00000   0.00000
   D28        3.14159   0.00000   0.00000   0.00000   0.00000   3.14159
         Item               Value     Threshold  Converged?
 Maximum Force            0.022284     0.000450     NO 
 RMS     Force            0.005139     0.000300     NO 
 Maximum Displacement     0.152015     0.001800     NO 
 RMS     Displacement     0.045959     0.001200     NO 
 Predicted change in Energy=-4.029824D-03
 GradGradGradGradGradGradGradGradGradGradGradGradGradGradGradGradGradGrad

                          Input orientation:                          
 ---------------------------------------------------------------------
 Center     Atomic      Atomic             Coordinates (Angstroms)
 Number     Number       Type             X           Y           Z
 ---------------------------------------------------------------------
      1          6           0        0.736418   -3.733026    0.000000
      2          1           0        0.801183   -4.820643    0.000000
      3          1           0        1.686807   -3.196263    0.000000
      4          6           0       -0.451468   -3.114759    0.000000
      5          1           0       -1.353750   -3.732470    0.000000
      6          6           0       -0.718545   -1.703477    0.000000
      7          1           0       -1.781066   -1.444965    0.000000
      8          6           0        0.177070   -0.690048    0.000000
      9          1           0        1.252427   -0.902177    0.000000
     10          6           0       -0.177070    0.690048    0.000000
     11          1           0       -1.252427    0.902177    0.000000
     12          6           0        0.718545    1.703477    0.000000
     13          1           0        1.781066    1.444965    0.000000
     14          6           0        0.451468    3.114759    0.000000
     15          1           0        1.353750    3.732470    0.000000
     16          6           0       -0.736418    3.733026    0.000000
     17          1           0       -0.801183    4.820643    0.000000
     18          1           0       -1.686807    3.196263    0.000000
 ---------------------------------------------------------------------
                    Distance matrix (angstroms):
                    1          2          3          4          5
     1  C    0.000000
     2  H    1.089544   0.000000
     3  H    1.091491   1.850118   0.000000
     4  C    1.339152   2.116406   2.139828   0.000000
     5  H    2.090168   2.414096   3.087475   1.093471   0.000000
     6  C    2.497196   3.467895   2.830923   1.436332   2.126100
     7  H    3.401903   4.250083   3.884994   2.134488   2.327075
     8  C    3.093959   4.177479   2.925819   2.504852   3.405839
     9  H    2.877494   3.944363   2.334849   2.792630   3.847430
    10  C    4.516419   5.596847   4.310157   3.814689   4.576379
    11  H    5.043868   6.080130   5.043442   4.096011   4.635754
    12  C    5.436532   6.524643   4.994495   4.958258   5.817553
    13  H    5.282317   6.341767   4.642185   5.076937   6.052512
    14  C    6.853711   7.943104   6.430790   6.294616   7.081198
    15  H    7.490976   8.570943   6.936733   7.081198   7.940774
    16  C    7.609939   8.690769   7.340781   6.853711   7.490976
    17  H    8.690769   9.773534   8.394097   7.943104   8.570943
    18  H    7.340781   8.394097   7.228116   6.430790   6.936733
                    6          7          8          9         10
     6  C    0.000000
     7  H    1.093517   0.000000
     8  C    1.352466   2.098618   0.000000
     9  H    2.127631   3.081671   1.096080   0.000000
    10  C    2.454008   2.670409   1.424809   2.139776   0.000000
    11  H    2.659786   2.405937   2.139776   3.087068   1.096080
    12  C    3.697642   4.020042   2.454008   2.659786   1.352466
    13  H    4.020042   4.586990   2.670409   2.405937   2.098618
    14  C    4.958258   5.076937   3.814689   4.096011   2.504852
    15  H    5.817553   6.052512   4.576379   4.635754   3.405839
    16  C    5.436532   5.282317   4.516419   5.043868   3.093959
    17  H    6.524643   6.341767   5.596847   6.080130   4.177479
    18  H    4.994495   4.642185   4.310157   5.043442   2.925819
                   11         12         13         14         15
    11  H    0.000000
    12  C    2.127631   0.000000
    13  H    3.081671   1.093517   0.000000
    14  C    2.792630   1.436332   2.134488   0.000000
    15  H    3.847430   2.126100   2.327075   1.093471   0.000000
    16  C    2.877494   2.497196   3.401903   1.339152   2.090168
    17  H    3.944363   3.467895   4.250083   2.116406   2.414096
    18  H    2.334849   2.830923   3.884994   2.139828   3.087475
                   16         17         18
    16  C    0.000000
    17  H    1.089544   0.000000
    18  H    1.091491   1.850118   0.000000
 Stoichiometry    C8H10
 Framework group  C2H[SGH(C8H10)]
 Deg. of freedom    17
 Full point group                 C2H     NOp   4
 Largest Abelian subgroup         C2H     NOp   4
 Largest concise Abelian subgroup C2      NOp   2
                         Standard orientation:                         
 ---------------------------------------------------------------------
 Center     Atomic      Atomic             Coordinates (Angstroms)
 Number     Number       Type             X           Y           Z
 ---------------------------------------------------------------------
      1          6           0        0.033842    3.804819    0.000000
      2          1           0        0.190396    4.883056    0.000000
      3          1           0       -1.005469    3.471375    0.000000
      4          6           0        1.072127    2.959070    0.000000
      5          1           0        2.080698    3.381519    0.000000
      6          6           0        1.048238    1.522937    0.000000
      7          1           0        2.036512    1.054863    0.000000
      8          6           0       -0.033842    0.711600    0.000000
      9          1           0       -1.044068    1.136846    0.000000
     10          6           0        0.033842   -0.711600    0.000000
     11          1           0        1.044068   -1.136846    0.000000
     12          6           0       -1.048238   -1.522937    0.000000
     13          1           0       -2.036512   -1.054863    0.000000
     14          6           0       -1.072127   -2.959070    0.000000
     15          1           0       -2.080698   -3.381519    0.000000
     16          6           0       -0.033842   -3.804819    0.000000
     17          1           0       -0.190396   -4.883056    0.000000
     18          1           0        1.005469   -3.471375    0.000000
 ---------------------------------------------------------------------
 Rotational constants (GHZ):      9.8811742      0.6739179      0.6308898
 Standard basis: 6-31G(d) (6D, 7F)
 There are    54 symmetry adapted basis functions of AG  symmetry.
 There are    16 symmetry adapted basis functions of BG  symmetry.
 There are    16 symmetry adapted basis functions of AU  symmetry.
 There are    54 symmetry adapted basis functions of BU  symmetry.
 Integral buffers will be    131072 words long.
 Raffenetti 2 integral format.
 Two-electron integral symmetry is turned on.
   140 basis functions,   264 primitive gaussians,   140 cartesian basis functions
    29 alpha electrons       29 beta electrons
       nuclear repulsion energy       303.4027963864 Hartrees.
 NAtoms=   18 NActive=   18 NUniq=    9 SFac= 4.00D+00 NAtFMM=   60 NAOKFM=F Big=F
 One-electron integrals computed using PRISM.
 NBasis=   140 RedAO= T  NBF=    54    16    16    54
 NBsUse=   140 1.00D-06 NBFU=    54    16    16    54
 Initial guess read from the read-write file.
 B after Tr=     0.000000    0.000000    0.000000
         Rot=    1.000000    0.000000    0.000000    0.000000 Ang=   0.00 deg.
 Initial guess orbital symmetries:
       Occupied  (AG) (BU) (AG) (BU) (AG) (BU) (BU) (AG) (AG) (BU)
                 (AG) (BU) (AG) (BU) (BU) (AG) (AG) (BU) (BU) (AG)
                 (AG) (BU) (BU) (AG) (AG) (AU) (BG) (AU) (BG)
       Virtual   (AU) (BG) (AU) (BU) (BU) (BG) (AG) (AG) (BU) (AG)
                 (BU) (AG) (BU) (AG) (BU) (AG) (BU) (AG) (BU) (AG)
                 (BU) (AG) (BU) (AU) (BG) (AG) (BU) (AU) (BU) (AG)
                 (BG) (BU) (AU) (AG) (BG) (AG) (BU) (BG) (AU) (AG)
                 (BU) (AG) (BU) (BU) (AG) (BU) (AG) (BU) (AG) (AG)
                 (BU) (BU) (AG) (BU) (AG) (BU) (AG) (BU) (AG) (AG)
                 (AU) (BG) (BU) (AU) (BG) (AU) (BU) (AG) (BG) (AU)
                 (BG) (AU) (AG) (BU) (AG) (BU) (AG) (BU) (AG) (BG)
                 (BU) (AU) (BU) (AG) (BG) (AG) (BU) (AG) (AU) (BU)
                 (BG) (AG) (BG) (AU) (AG) (BU) (BU) (AG) (BU) (BU)
                 (AG) (AG) (BU) (AG) (BU) (AG) (BU) (AG) (BU) (AG)
                 (BU)
 Harris functional with IExCor=  402 diagonalized for initial guess.
 ExpMin= 1.61D-01 ExpMax= 3.05D+03 ExpMxC= 4.57D+02 IAcc=1 IRadAn=         1 AccDes= 0.00D+00
 HarFok:  IExCor=  402 AccDes= 0.00D+00 IRadAn=         1 IDoV= 1
 ScaDFX=  1.000000  1.000000  1.000000  1.000000
 FoFCou: FMM=F IPFlag=           0 FMFlag=      100000 FMFlg1=           0
         NFxFlg=           0 DoJE=T BraDBF=F KetDBF=T FulRan=T
         Omega=  0.000000  0.000000  1.000000  0.000000  0.000000 ICntrl=     500 IOpCl=  0
         NMat0=    1 NMatS0=    1 NMatT0=    0 NMatD0=    1 NMtDS0=    0 NMtDT0=    0
         I1Cent=           4 NGrid=           0.
 Petite list used in FoFCou.
 Requested convergence on RMS density matrix=1.00D-08 within 128 cycles.
 Requested convergence on MAX density matrix=1.00D-06.
 Requested convergence on             energy=1.00D-06.
 No special actions if energy rises.
 Integral accuracy reduced to 1.0D-05 until final iterations.
 Initial convergence to 1.0D-05 achieved.  Increase integral accuracy.
 SCF Done:  E(RB3LYP) =  -310.792844594     A.U. after   13 cycles
             Convg  =    0.4339D-08             -V/T =  2.0098
 Calling FoFJK, ICntrl=      2127 FMM=F ISym2X=1 I1Cent= 0 IOpClX= 0 NMat=1 NMatS=1 NMatT=0.
 ***** Axes restored to original set *****
 -------------------------------------------------------------------
 Center     Atomic                   Forces (Hartrees/Bohr)
 Number     Number              X              Y              Z
 -------------------------------------------------------------------
      1        6           0.007979897   -0.005740568    0.000000000
      2        1           0.000053105    0.002590889    0.000000000
      3        1          -0.002908773   -0.000973857    0.000000000
      4        6          -0.005031559   -0.011567220    0.000000000
      5        1           0.003185698   -0.000795054    0.000000000
      6        6          -0.007993083    0.009929167    0.000000000
      7        1           0.002485156    0.001876327    0.000000000
      8        6           0.010359939   -0.004130513    0.000000000
      9        1          -0.003800129   -0.001528387    0.000000000
     10        6          -0.010359939    0.004130513    0.000000000
     11        1           0.003800129    0.001528387    0.000000000
     12        6           0.007993083   -0.009929167    0.000000000
     13        1          -0.002485156   -0.001876327    0.000000000
     14        6           0.005031559    0.011567220    0.000000000
     15        1          -0.003185698    0.000795054    0.000000000
     16        6          -0.007979897    0.005740568    0.000000000
     17        1          -0.000053105   -0.002590889    0.000000000
     18        1           0.002908773    0.000973857    0.000000000
 -------------------------------------------------------------------
 Cartesian Forces:  Max     0.011567220 RMS     0.004698292

 GradGradGradGradGradGradGradGradGradGradGradGradGradGradGradGradGradGrad
 Berny optimization.
 Using GEDIIS/GDIIS optimizer.
 Internal  Forces:  Max     0.016806873 RMS     0.003751907
 Search for a local minimum.
 Step number   3 out of a maximum of   79
 All quantities printed in internal units (Hartrees-Bohrs-Radians)
 Mixed Optimization -- RFO/linear search
 Update second derivatives using D2CorX and points    1    2    3
 DE= -2.34D-03 DEPred=-4.03D-03 R= 5.82D-01
 SS=  1.41D+00  RLast= 2.56D-01 DXNew= 8.4853D-01 7.6913D-01
 Trust test= 5.82D-01 RLast= 2.56D-01 DXMaxT set to 7.69D-01
 ITU=  1  1  0
 Use linear search instead of GDIIS.
     Eigenvalues ---    0.00310   0.00310   0.00499   0.01531   0.01531
     Eigenvalues ---    0.01541   0.01541   0.01639   0.01639   0.02683
     Eigenvalues ---    0.02683   0.02683   0.02683   0.02683   0.02683
     Eigenvalues ---    0.15114   0.16000   0.16000   0.16000   0.16000
     Eigenvalues ---    0.16000   0.16000   0.16000   0.16163   0.16439
     Eigenvalues ---    0.19681   0.22000   0.22000   0.22000   0.22001
     Eigenvalues ---    0.24674   0.29014   0.30644   0.35826   0.36863
     Eigenvalues ---    0.37600   0.37600   0.37600   0.37601   0.37719
     Eigenvalues ---    0.37753   0.38109   0.38896   0.39316   0.53869
     Eigenvalues ---    0.53947   0.53947   0.55721
 RFO step:  Lambda=-3.40507479D-04 EMin= 3.09906346D-03
 Quartic linear search produced a step of -0.35552.
 Iteration  1 RMS(Cart)=  0.02267508 RMS(Int)=  0.00009513
 Iteration  2 RMS(Cart)=  0.00011602 RMS(Int)=  0.00000000
 Iteration  3 RMS(Cart)=  0.00000001 RMS(Int)=  0.00000000
 ClnCor:  largest displacement from symmetrization is 7.24D-11 for atom     1.
 Variable       Old X    -DE/DX   Delta X   Delta X   Delta X     New X
                                 (Linear)    (Quad)   (Total)
    R1        2.05894  -0.00258  -0.00611  -0.00017  -0.00629   2.05265
    R2        2.06262  -0.00301  -0.00899   0.00157  -0.00742   2.05520
    R3        2.53063   0.00644   0.00490   0.00422   0.00912   2.53975
    R4        2.06636  -0.00218  -0.00798   0.00202  -0.00596   2.06040
    R5        2.71427   0.01681   0.04411   0.00267   0.04677   2.76105
    R6        2.06645  -0.00197  -0.00806   0.00245  -0.00562   2.06083
    R7        2.55579   0.00499   0.00033   0.00583   0.00616   2.56195
    R8        2.07129  -0.00343  -0.01389   0.00457  -0.00932   2.06197
    R9        2.69250   0.01109   0.03040   0.00126   0.03166   2.72416
   R10        2.07129  -0.00343  -0.01389   0.00457  -0.00932   2.06197
   R11        2.55579   0.00499   0.00033   0.00583   0.00616   2.56195
   R12        2.06645  -0.00197  -0.00806   0.00245  -0.00562   2.06083
   R13        2.71427   0.01681   0.04411   0.00267   0.04677   2.76105
   R14        2.06636  -0.00218  -0.00798   0.00202  -0.00596   2.06040
   R15        2.53063   0.00644   0.00490   0.00422   0.00912   2.53975
   R16        2.05894  -0.00258  -0.00611  -0.00017  -0.00629   2.05265
   R17        2.06262  -0.00301  -0.00899   0.00157  -0.00742   2.05520
    A1        2.02544   0.00026   0.01168  -0.00813   0.00356   2.02900
    A2        2.11017   0.00068  -0.00467   0.00708   0.00241   2.11258
    A3        2.14758  -0.00094  -0.00701   0.00104  -0.00597   2.14161
    A4        2.06138  -0.00224  -0.00075  -0.00725  -0.00800   2.05338
    A5        2.23772  -0.00059  -0.01433   0.00708  -0.00725   2.23047
    A6        1.98409   0.00283   0.01508   0.00017   0.01525   1.99934
    A7        1.99649   0.00293   0.01238   0.00265   0.01503   2.01152
    A8        2.23080  -0.00088  -0.01349   0.00565  -0.00784   2.22296
    A9        2.05590  -0.00205   0.00110  -0.00830  -0.00719   2.04870
   A10        2.09980  -0.00236   0.00627  -0.01578  -0.00952   2.09028
   A11        2.16664   0.00010  -0.01423   0.01186  -0.00237   2.16427
   A12        2.01675   0.00227   0.00796   0.00393   0.01189   2.02863
   A13        2.01675   0.00227   0.00796   0.00393   0.01189   2.02863
   A14        2.16664   0.00010  -0.01423   0.01186  -0.00237   2.16427
   A15        2.09980  -0.00236   0.00627  -0.01578  -0.00952   2.09028
   A16        2.05590  -0.00205   0.00110  -0.00830  -0.00719   2.04870
   A17        2.23080  -0.00088  -0.01349   0.00565  -0.00784   2.22296
   A18        1.99649   0.00293   0.01238   0.00265   0.01503   2.01152
   A19        1.98409   0.00283   0.01508   0.00017   0.01525   1.99934
   A20        2.23772  -0.00059  -0.01433   0.00708  -0.00725   2.23047
   A21        2.06138  -0.00224  -0.00075  -0.00725  -0.00800   2.05338
   A22        2.11017   0.00068  -0.00467   0.00708   0.00241   2.11258
   A23        2.14758  -0.00094  -0.00701   0.00104  -0.00597   2.14161
   A24        2.02544   0.00026   0.01168  -0.00813   0.00356   2.02900
    D1        0.00000   0.00000   0.00000   0.00000   0.00000   0.00000
    D2        3.14159   0.00000   0.00000   0.00000   0.00000   3.14159
    D3        3.14159   0.00000   0.00000   0.00000   0.00000   3.14159
    D4        0.00000   0.00000   0.00000   0.00000   0.00000   0.00000
    D5        3.14159   0.00000   0.00000   0.00000   0.00000   3.14159
    D6        0.00000   0.00000   0.00000   0.00000   0.00000   0.00000
    D7        0.00000   0.00000   0.00000   0.00000   0.00000   0.00000
    D8        3.14159   0.00000   0.00000   0.00000   0.00000   3.14159
    D9        0.00000   0.00000   0.00000   0.00000   0.00000   0.00000
   D10        3.14159   0.00000   0.00000   0.00000   0.00000   3.14159
   D11        3.14159   0.00000   0.00000   0.00000   0.00000   3.14159
   D12        0.00000   0.00000   0.00000   0.00000   0.00000   0.00000
   D13        0.00000   0.00000   0.00000   0.00000   0.00000   0.00000
   D14        3.14159   0.00000   0.00000   0.00000   0.00000   3.14159
   D15        3.14159   0.00000   0.00000   0.00000   0.00000   3.14159
   D16        0.00000   0.00000   0.00000   0.00000   0.00000   0.00000
   D17        0.00000   0.00000   0.00000   0.00000   0.00000   0.00000
   D18        3.14159   0.00000   0.00000   0.00000   0.00000   3.14159
   D19        3.14159   0.00000   0.00000   0.00000   0.00000   3.14159
   D20        0.00000   0.00000   0.00000   0.00000   0.00000   0.00000
   D21        3.14159   0.00000   0.00000   0.00000   0.00000   3.14159
   D22        0.00000   0.00000   0.00000   0.00000   0.00000   0.00000
   D23        0.00000   0.00000   0.00000   0.00000   0.00000   0.00000
   D24        3.14159   0.00000   0.00000   0.00000   0.00000   3.14159
   D25        3.14159   0.00000   0.00000   0.00000   0.00000   3.14159
   D26        0.00000   0.00000   0.00000   0.00000   0.00000   0.00000
   D27        0.00000   0.00000   0.00000   0.00000   0.00000   0.00000
   D28        3.14159   0.00000   0.00000   0.00000   0.00000   3.14159
         Item               Value     Threshold  Converged?
 Maximum Force            0.016807     0.000450     NO 
 RMS     Force            0.003752     0.000300     NO 
 Maximum Displacement     0.078022     0.001800     NO 
 RMS     Displacement     0.022610     0.001200     NO 
 Predicted change in Energy=-1.412801D-03
 GradGradGradGradGradGradGradGradGradGradGradGradGradGradGradGradGradGrad

                          Input orientation:                          
 ---------------------------------------------------------------------
 Center     Atomic      Atomic             Coordinates (Angstroms)
 Number     Number       Type             X           Y           Z
 ---------------------------------------------------------------------
      1          6           0        0.739733   -3.755014    0.000000
      2          1           0        0.815292   -4.838601    0.000000
      3          1           0        1.679289   -3.207263    0.000000
      4          6           0       -0.457195   -3.143754    0.000000
      5          1           0       -1.347074   -3.773758    0.000000
      6          6           0       -0.729559   -1.708282    0.000000
      7          1           0       -1.785329   -1.435078    0.000000
      8          6           0        0.175666   -0.699049    0.000000
      9          1           0        1.242467   -0.928257    0.000000
     10          6           0       -0.175666    0.699049    0.000000
     11          1           0       -1.242467    0.928257    0.000000
     12          6           0        0.729559    1.708282    0.000000
     13          1           0        1.785329    1.435078    0.000000
     14          6           0        0.457195    3.143754    0.000000
     15          1           0        1.347074    3.773758    0.000000
     16          6           0       -0.739733    3.755014    0.000000
     17          1           0       -0.815292    4.838601    0.000000
     18          1           0       -1.679289    3.207263    0.000000
 ---------------------------------------------------------------------
                    Distance matrix (angstroms):
                    1          2          3          4          5
     1  C    0.000000
     2  H    1.086217   0.000000
     3  H    1.087565   1.846010   0.000000
     4  C    1.343978   2.119370   2.137428   0.000000
     5  H    2.086891   2.410335   3.078926   1.090316   0.000000
     6  C    2.519511   3.490768   2.837163   1.461083   2.155809
     7  H    3.429000   4.283362   3.891556   2.164142   2.379388
     8  C    3.107587   4.188677   2.924384   2.525292   3.431118
     9  H    2.871114   3.933607   2.320491   2.792360   3.847413
    10  C    4.547157   5.625616   4.324364   3.853101   4.623656
    11  H    5.085484   6.122991   5.063515   4.147039   4.703179
    12  C    5.463306   6.547444   5.006453   4.995062   5.862181
    13  H    5.294368   6.348230   4.643552   5.098492   6.078151
[...]
 ! R11   R(10,12)                1.3559         -DE/DX =    0.0                 !
 ! R12   R(12,13)                1.0899         -DE/DX =    0.0                 !
 ! R13   R(12,14)                1.4596         -DE/DX =    0.0                 !
 ! R14   R(14,15)                1.0896         -DE/DX =    0.0                 !
 ! R15   R(14,16)                1.3439         -DE/DX =    0.0                 !
 ! R16   R(16,17)                1.0856         -DE/DX =    0.0                 !
 ! R17   R(16,18)                1.087          -DE/DX =    0.0                 !
 ! A1    A(2,1,3)              116.3017         -DE/DX =    0.0                 !
 ! A2    A(2,1,4)              121.0106         -DE/DX =    0.0                 !
 ! A3    A(3,1,4)              122.6878         -DE/DX =    0.0                 !
 ! A4    A(1,4,5)              117.5864         -DE/DX =    0.0                 !
 ! A5    A(1,4,6)              127.6969         -DE/DX =    0.0                 !
 ! A6    A(5,4,6)              114.7167         -DE/DX =    0.0                 !
 ! A7    A(4,6,7)              115.4056         -DE/DX =    0.0                 !
 ! A8    A(4,6,8)              127.1631         -DE/DX =    0.0                 !
 ! A9    A(7,6,8)              117.4314         -DE/DX =    0.0                 !
 ! A10   A(6,8,9)              119.6453         -DE/DX =    0.0                 !
 ! A11   A(6,8,10)             123.9006         -DE/DX =    0.0                 !
 ! A12   A(9,8,10)             116.4541         -DE/DX =    0.0                 !
 ! A13   A(8,10,11)            116.4541         -DE/DX =    0.0                 !
 ! A14   A(8,10,12)            123.9006         -DE/DX =    0.0                 !
 ! A15   A(11,10,12)           119.6453         -DE/DX =    0.0                 !
 ! A16   A(10,12,13)           117.4314         -DE/DX =    0.0                 !
 ! A17   A(10,12,14)           127.1631         -DE/DX =    0.0                 !
 ! A18   A(13,12,14)           115.4056         -DE/DX =    0.0                 !
 ! A19   A(12,14,15)           114.7167         -DE/DX =    0.0                 !
 ! A20   A(12,14,16)           127.6969         -DE/DX =    0.0                 !
 ! A21   A(15,14,16)           117.5864         -DE/DX =    0.0                 !
 ! A22   A(14,16,17)           121.0106         -DE/DX =    0.0                 !
 ! A23   A(14,16,18)           122.6878         -DE/DX =    0.0                 !
 ! A24   A(17,16,18)           116.3017         -DE/DX =    0.0                 !
 ! D1    D(2,1,4,5)              0.0            -DE/DX =    0.0                 !
 ! D2    D(2,1,4,6)            180.0            -DE/DX =    0.0                 !
 ! D3    D(3,1,4,5)            180.0            -DE/DX =    0.0                 !
 ! D4    D(3,1,4,6)              0.0            -DE/DX =    0.0                 !
 ! D5    D(1,4,6,7)            180.0            -DE/DX =    0.0                 !
 ! D6    D(1,4,6,8)              0.0            -DE/DX =    0.0                 !
 ! D7    D(5,4,6,7)              0.0            -DE/DX =    0.0                 !
 ! D8    D(5,4,6,8)            180.0            -DE/DX =    0.0                 !
 ! D9    D(4,6,8,9)              0.0            -DE/DX =    0.0                 !
 ! D10   D(4,6,8,10)           180.0            -DE/DX =    0.0                 !
 ! D11   D(7,6,8,9)            180.0            -DE/DX =    0.0                 !
 ! D12   D(7,6,8,10)             0.0            -DE/DX =    0.0                 !
 ! D13   D(6,8,10,11)            0.0            -DE/DX =    0.0                 !
 ! D14   D(6,8,10,12)          180.0            -DE/DX =    0.0                 !
 ! D15   D(9,8,10,11)          180.0            -DE/DX =    0.0                 !
 ! D16   D(9,8,10,12)            0.0            -DE/DX =    0.0                 !
 ! D17   D(8,10,12,13)           0.0            -DE/DX =    0.0                 !
 ! D18   D(8,10,12,14)         180.0            -DE/DX =    0.0                 !
 ! D19   D(11,10,12,13)        180.0            -DE/DX =    0.0                 !
 ! D20   D(11,10,12,14)          0.0            -DE/DX =    0.0                 !
 ! D21   D(10,12,14,15)        180.0            -DE/DX =    0.0                 !
 ! D22   D(10,12,14,16)          0.0            -DE/DX =    0.0                 !
 ! D23   D(13,12,14,15)          0.0            -DE/DX =    0.0                 !
 ! D24   D(13,12,14,16)        180.0            -DE/DX =    0.0                 !
 ! D25   D(12,14,16,17)        180.0            -DE/DX =    0.0                 !
 ! D26   D(12,14,16,18)          0.0            -DE/DX =    0.0                 !
 ! D27   D(15,14,16,17)          0.0            -DE/DX =    0.0                 !
 ! D28   D(15,14,16,18)        180.0            -DE/DX =    0.0                 !
 --------------------------------------------------------------------------------
 GradGradGradGradGradGradGradGradGradGradGradGradGradGradGradGradGradGrad

 1\1\GINC-STUDENT-LENOVO-S510\Freq\RB3LYP\6-31G(d)\C8H10\STUDENT\02-Mar
 -2021\0\\#N Geom=AllCheck Guess=TCheck SCRF=Check GenChk RB3LYP/6-31G(
 d) Freq\\Title Card Required\\0,1\C,0.7394372686,-3.7469512912,0.\H,0.
 8174310372,-4.8297162931,0.\H,1.6767442428,-3.1965599831,0.\C,-0.45914
 1274,-3.1391255786,0.\H,-1.3459414668,-3.7722113682,0.\C,-0.7327973027
 ,-1.7054303428,0.\H,-1.7875333893,-1.4307071156,0.\C,0.1749981248,-0.6
 983036249,0.\H,1.2397775925,-0.9321238538,0.\C,-0.1749981248,0.6983036
 249,0.\H,-1.2397775925,0.9321238538,0.\C,0.7327973027,1.7054303428,0.\
 H,1.7875333893,1.4307071156,0.\C,0.459141274,3.1391255786,0.\H,1.34594
 14668,3.7722113682,0.\C,-0.7394372686,3.7469512912,0.\H,-0.8174310372,
 4.8297162931,0.\H,-1.6767442428,3.1965599831,0.\\Version=EM64L-G09RevC
 .01\State=1-AG\HF=-310.7941468\RMSD=1.346e-09\RMSF=2.270e-05\ZeroPoint
 =0.152235\Thermal=0.1598093\Dipole=0.,0.,0.\DipoleDeriv=-0.0068772,0.1
 16637,0.,0.0655221,-0.2426978,0.,0.,0.,-0.2931453,0.049798,0.0228687,0
 .,0.0250256,-0.1130846,0.,0.,0.,0.1331923,-0.0506137,-0.0503203,0.,-0.
 0900061,-0.0003203,0.,0.,0.,0.1353195,0.0647103,0.3495961,0.,0.0411098
 ,0.4696293,0.,0.,0.,-0.087055,-0.0820861,-0.1174694,0.,-0.0666759,-0.0
 678104,0.,0.,0.,0.1101972,0.161355,-0.3380815,0.,-0.083632,-0.1478925,
 0.,0.,0.,-0.1300723,-0.1115965,0.044594,0.,0.0627272,0.0138638,0.,0.,0
 .,0.1121977,0.0767334,-0.0921838,0.,0.0246479,0.081284,0.,0.,0.,-0.086
 2262,-0.1014232,0.0643591,0.,0.0212814,0.0070285,0.,0.,0.,0.1055921,0.
 0767334,-0.0921838,0.,0.0246479,0.081284,0.,0.,0.,-0.0862262,-0.101423
 2,0.0643591,0.,0.0212814,0.0070285,0.,0.,0.,0.1055921,0.161355,-0.3380
 815,0.,-0.083632,-0.1478925,0.,0.,0.,-0.1300724,-0.1115965,0.044594,0.
 ,0.0627272,0.0138638,0.,0.,0.,0.1121977,0.0647104,0.3495962,0.,0.04110
 98,0.4696293,0.,0.,0.,-0.087055,-0.0820861,-0.1174694,0.,-0.0666759,-0
 .0678104,0.,0.,0.,0.1101972,-0.0068771,0.116637,0.,0.0655221,-0.242697
 8,0.,0.,0.,-0.2931453,0.0497979,0.0228687,0.,0.0250256,-0.1130847,0.,0
 .,0.,0.1331923,-0.0506137,-0.0503203,0.,-0.0900061,-0.0003203,0.,0.,0.
 ,0.1353196\Polar=86.0231847,-6.4793464,222.2367979,0.,0.,29.027341\PG=
 C02H [SGH(C8H10)]\NImag=2\\0.79261525,-0.07359237,0.68862228,0.,0.,0.1
 0000471,-0.05840839,0.01284785,0.,0.05631278,0.01730427,-0.34508063,0.
 ,-0.02072397,0.36363300,0.,0.,-0.02931120,0.,0.,0.02073420,-0.26362335
 ,-0.12246934,0.,0.00438719,0.00253485,0.,0.28177658,-0.12495533,-0.135
 53573,0.,-0.02517727,-0.01075930,0.,0.13512775,0.13506964,0.,0.,-0.034
 76285,0.,0.,0.00265727,0.,0.,0.02098988,-0.44520383,0.16423570,0.,0.00
 073044,-0.00160760,0.,-0.02137212,0.01189366,0.,0.80584323,0.14550884,
 -0.18783010,0.,0.03142436,-0.01047887,0.,-0.01768381,0.01375991,0.,-0.
 06326302,0.62328606,0.,0.,-0.04977078,0.,0.,0.00399001,0.,0.,0.0050409
 0,0.,0.,0.12999306,-0.02432083,-0.01834069,0.,0.00124618,0.00027024,0.
 ,-0.00343153,0.00303717,0.,-0.23630734,-0.12922183,0.,0.25507397,0.013
 81037,0.01109002,0.,0.00018444,0.00124410,0.,0.00307694,-0.00044490,0.
 ,-0.12902428,-0.15089753,0.,0.13628919,0.16151432,0.,0.,0.00518362,0.,
 0.,-0.00776106,0.,0.,0.01217624,0.,0.,-0.04080839,0.,0.,0.02698065,0.0
 0370823,0.02948832,0.,-0.00402036,0.00219201,0.,0.00132088,-0.00075728
 ,0.,-0.11731884,0.04778533,0.,0.00587130,-0.02703851,0.,0.71928223,0.0
 3397809,-0.02906969,0.,0.00013292,0.00167806,0.,-0.00151846,-0.0005686
 8,0.,-0.00007501,-0.23893369,0.,0.00641262,-0.01796458,0.,0.08492246,0
 .68370438,0.,0.,0.00637223,0.,0.,0.01072916,0.,0.,-0.00729470,0.,0.,-0
 .05927504,0.,0.,0.00295616,0.,0.,0.12780408,0.00138226,0.00104583,0.,-
 0.00029013,0.00005776,0.,0.00012291,-0.00022605,0.,-0.00381639,-0.0013
 5203,0.,0.00116704,0.00023792,0.,-0.31058156,0.06600651,0.,0.33387317,
 -0.00126783,-0.00551891,0.,0.00132756,-0.00065773,0.,0.00009513,0.0001
 8605,0.,0.03225324,-0.00740900,0.,-0.00013688,0.00093991,0.,0.06575399
 ,-0.07577290,0.,-0.06961192,0.08211293,0.,0.,0.00192103,0.,0.,0.000126
 59,0.,0.,-0.00013820,0.,0.,0.00302744,0.,0.,-0.00100997,0.,0.,-0.03822
 097,0.,0.,0.02485552,-0.00409897,0.00688268,0.,-0.00090164,-0.00017040
 ,0.,-0.00076053,0.00089224,0.,0.01843102,-0.01114036,0.,0.00042685,0.0
 0382328,0.,-0.29258728,-0.17487404,0.,-0.02272977,-0.02454979,0.,0.738
 76391,-0.01459643,0.00637650,0.,-0.00047803,0.00020402,0.,0.00020205,-
 0.00002109,0.,-0.00660820,-0.05269008,0.,0.00142521,-0.00496714,0.,-0.
 17279033,-0.27752371,0.,0.00600013,0.00855799,0.,0.07930576,0.69123267
 ,0.,0.,0.00063272,0.,0.,-0.00051861,0.,0.,0.00021105,0.,0.,0.00459665,
 0.,0.,0.00248084,0.,0.,-0.05517589,0.,0.,0.00516312,0.,0.,0.13081943,-
 0.00010319,-0.00014883,0.,0.00046049,0.00009236,0.,0.00085625,0.000272
 55,0.,0.00026318,0.00171148,0.,0.00010999,-0.00010476,0.,-0.02015382,0
 .00541362,0.,-0.00140219,-0.00283703,0.,-0.31333963,0.05643969,0.,0.33
 831647,-0.00075069,-0.00071869,0.,0.00022799,0.00020301,0.,0.00053748,
 -0.00165381,0.,0.00103033,0.00025641,0.,0.00020099,0.00021415,0.,-0.02
 440508,0.01074577,0.,-0.00318854,-0.00309655,0.,0.05616368,-0.07179634
 ,0.,-0.06188291,0.07465502,0.,0.,0.00033901,0.,0.,-0.00027555,0.,0.,0.
 00106027,0.,0.,-0.00581088,0.,0.,-0.00012363,0.,0.,0.00539474,0.,0.,0.
 01024749,0.,0.,-0.04186208,0.,0.,0.02536676,0.00038800,-0.00097130,0.,
 0.00048841,0.00009080,0.,0.00068304,-0.00013923,0.,-0.00467909,0.00069
 659,0.,0.00009209,-0.00140182,0.,0.00767180,-0.03117360,0.,0.00098098,
 -0.00209270,0.,-0.12136188,0.06760536,0.,-0.00746731,0.03105285,0.,0.7
 3876391,0.00695728,-0.00302397,0.,0.00028021,0.00011017,0.,0.00016526,
 -0.00011105,0.,-0.01049715,0.01565350,0.,0.00006589,-0.00006662,0.,-0.
 01696331,-0.06477915,0.,0.00255595,0.00099646,0.,0.06760536,-0.2429118
 4,0.,0.00093066,-0.00524032,0.,0.07930576,0.69123267,0.,0.,-0.00064167
 ,0.,0.,-0.00051675,0.,0.,0.00010993,0.,0.,0.01010182,0.,0.,0.00005056,
 0.,0.,0.00553913,0.,0.,-0.00688233,0.,0.,-0.05752873,0.,0.,0.00342082,
 0.,0.,0.13081943,-0.00004387,-0.00012205,0.,0.00004575,-0.00000090,0.,
 0.00005126,-0.00001609,0.,0.00023063,0.00018623,0.,0.00001489,0.000073
 19,0.,0.00101333,-0.00163597,0.,0.00067452,0.00069316,0.,-0.00746731,0
 .00093066,0.,0.00047326,0.00093560,0.,-0.31333963,0.05643969,0.,0.3383
 1647,0.00020412,0.00000025,0.,-0.00013036,-0.00002541,0.,-0.00019167,0
 .00003120,0.,-0.00034743,0.00024917,0.,-0.00004379,-0.00002441,0.,0.00
 182188,0.00155048,0.,-0.00123445,-0.00030194,0.,0.03105285,-0.00524032
 ,0.,0.00093560,-0.00504801,0.,0.05616368,-0.07179634,0.,-0.06188291,0.
 07465502,0.,0.,0.00000381,0.,0.,0.00001338,0.,0.,0.00003205,0.,0.,-0.0
 0020691,0.,0.,0.00004459,0.,0.,-0.00198753,0.,0.,0.00032136,0.,0.,0.00
 342082,0.,0.,0.00402230,0.,0.,-0.04186208,0.,0.,0.02536676,-0.00206527
 ,0.00087048,0.,-0.00006193,-0.00006437,0.,-0.00003840,0.00005036,0.,0.
 00358540,-0.00392070,0.,-0.00000849,0.00013898,0.,0.00397161,0.0128773
 9,0.,0.00041117,0.00003837,0.,0.00767180,-0.01696331,0.,0.00101333,0.0
 0182188,0.,-0.29258728,-0.17279033,0.,-0.02015382,-0.02440508,0.,0.719
 28223,-0.00391400,0.00134445,0.,0.00003711,-0.00008586,0.,0.00010911,0
 .00007092,0.,0.00377380,-0.00760117,0.,0.00004547,-0.00061890,0.,0.012
 87739,0.01370824,0.,-0.00051804,0.00011603,0.,-0.03117360,-0.06477915,
 0.,-0.00163597,0.00155048,0.,-0.17487404,-0.27752371,0.,0.00541362,0.0
 1074577,0.,0.08492246,0.68370438,0.,0.,0.00001516,0.,0.,-0.00002949,0.
 ,0.,0.00002297,0.,0.,0.00005013,0.,0.,-0.00019648,0.,0.,0.00317557,0.,
 0.,0.00012077,0.,0.,0.00553913,0.,0.,-0.00198753,0.,0.,-0.05517589,0.,
 0.,0.00539474,0.,0.,0.12780408,-0.00000346,-0.00009497,0.,0.00002563,0
 .00000127,0.,0.00002271,-0.00000324,0.,-0.00004327,0.00009104,0.,0.000
 00878,-0.00000999,0.,0.00041117,-0.00051804,0.,0.00019761,0.00024281,0
 .,0.00098098,0.00255595,0.,0.00067452,-0.00123445,0.,-0.02272977,0.006
 00013,0.,-0.00140219,-0.00318854,0.,-0.31058156,0.06600651,0.,0.333873
 17,-0.00008500,0.00001709,0.,0.00001946,0.00000904,0.,0.00002678,-0.00
 001391,0.,0.00011548,-0.00009372,0.,0.00001516,0.00002162,0.,0.0000383
 7,0.00011603,0.,0.00024281,-0.00009246,0.,-0.00209270,0.00099646,0.,0.
 00069316,-0.00030194,0.,-0.02454979,0.00855799,0.,-0.00283703,-0.00309
 655,0.,0.06575399,-0.07577290,0.,-0.06961192,0.08211293,0.,0.,-0.00008
 038,0.,0.,0.00006887,0.,0.,0.00001414,0.,0.,0.00005747,0.,0.,0.0000109
 9,0.,0.,0.00012077,0.,0.,0.00039707,0.,0.,-0.00688233,0.,0.,0.00032136
 ,0.,0.,0.00516312,0.,0.,0.01024749,0.,0.,-0.03822097,0.,0.,0.02485552,
 -0.00110736,0.00078158,0.,-0.00002788,0.00001058,0.,0.00001074,0.00001
 215,0.,0.00071317,-0.00258742,0.,0.00006830,-0.00009641,0.,0.00358540,
 0.00377380,0.,-0.00004327,0.00011548,0.,-0.00467909,-0.01049715,0.,0.0
 0023063,-0.00034743,0.,0.01843102,-0.00660820,0.,0.00026318,0.00103033
 ,0.,-0.11731884,-0.00007501,0.,-0.00381639,0.03225324,0.,0.80584323,0.
 00173541,-0.00031512,0.,-0.00001991,0.00008173,0.,-0.00000073,-0.00004
 977,0.,-0.00258742,0.00285498,0.,0.00005053,0.00015726,0.,-0.00392070,
 -0.00760117,0.,0.00009104,-0.00009372,0.,0.00069659,0.01565350,0.,0.00
 018623,0.00024917,0.,-0.01114036,-0.05269008,0.,0.00171148,0.00025641,
 0.,0.04778533,-0.23893369,0.,-0.00135203,-0.00740900,0.,-0.06326302,0.
 62328606,0.,0.,0.00010988,0.,0.,0.00009403,0.,0.,-0.00012408,0.,0.,-0.
 00106081,0.,0.,-0.00000451,0.,0.,0.00005013,0.,0.,0.00005747,0.,0.,0.0
 1010182,0.,0.,-0.00020691,0.,0.,0.00459665,0.,0.,-0.00581088,0.,0.,-0.
 05927504,0.,0.,0.00302744,0.,0.,0.12999306,-0.00000703,-0.00005488,0.,
 0.00000468,-0.00000947,0.,-0.00000129,0.00000493,0.,0.00006830,0.00005
 053,0.,-0.00000758,-0.00000985,0.,-0.00000849,0.00004547,0.,0.00000878
 ,0.00001516,0.,0.00009209,0.00006589,0.,0.00001489,-0.00004379,0.,0.00
 042685,0.00142521,0.,0.00010999,0.00020099,0.,0.00587130,0.00641262,0.
 ,0.00116704,-0.00013688,0.,-0.23630734,-0.12922183,0.,0.25507397,0.000
 04124,-0.00011929,0.,0.00001516,-0.00001828,0.,-0.00000510,0.00001265,
 0.,-0.00009641,0.00015726,0.,-0.00000985,-0.00007238,0.,0.00013898,-0.
 00061890,0.,-0.00000999,0.00002162,0.,-0.00140182,-0.00006662,0.,0.000
 07319,-0.00002441,0.,0.00382328,-0.00496714,0.,-0.00010476,0.00021415,
 0.,-0.02703851,-0.01796458,0.,0.00023792,0.00093991,0.,-0.12902428,-0.
 15089753,0.,0.13628919,0.16151432,0.,0.,-0.00000663,0.,0.,-0.00000196,
 0.,0.,0.00000763,0.,0.,-0.00000451,0.,0.,0.00002135,0.,0.,-0.00019648,
 0.,0.,0.00001099,0.,0.,0.00005056,0.,0.,0.00004459,0.,0.,0.00248084,0.
 ,0.,-0.00012363,0.,0.,0.00295616,0.,0.,-0.00100997,0.,0.,-0.04080839,0
 .,0.,0.02698065,0.00087344,-0.00038554,0.,0.00001318,0.00002667,0.,0.0
 0000518,-0.00001911,0.,-0.00110736,0.00173541,0.,-0.00000703,0.0000412
 4,0.,-0.00206527,-0.00391400,0.,-0.00000346,-0.00008500,0.,0.00038800,
 0.00695728,0.,-0.00004387,0.00020412,0.,-0.00409897,-0.01459643,0.,-0.
 00010319,-0.00075069,0.,0.00370823,0.03397809,0.,0.00138226,-0.0012678
 3,0.,-0.44520383,0.14550884,0.,-0.02432083,0.01381037,0.,0.79261525,-0
 .00038554,-0.00021292,0.,0.00003101,-0.00005126,0.,-0.00000348,0.00002
 571,0.,0.00078158,-0.00031512,0.,-0.00005488,-0.00011929,0.,0.00087048
 ,0.00134445,0.,-0.00009497,0.00001709,0.,-0.00097130,-0.00302397,0.,-0
 .00012205,0.00000025,0.,0.00688268,0.00637650,0.,-0.00014883,-0.000718
 69,0.,0.02948832,-0.02906969,0.,0.00104583,-0.00551891,0.,0.16423570,-
 0.18783010,0.,-0.01834069,0.01109002,0.,-0.07359237,0.68862228,0.,0.,0
 .00002007,0.,0.,-0.00001209,0.,0.,-0.00001665,0.,0.,0.00010988,0.,0.,-
 0.00000663,0.,0.,0.00001516,0.,0.,-0.00008038,0.,0.,-0.00064167,0.,0.,
 0.00000381,0.,0.,0.00063272,0.,0.,0.00033901,0.,0.,0.00637223,0.,0.,0.
 00192103,0.,0.,-0.04977078,0.,0.,0.00518362,0.,0.,0.10000471,0.0000131
 8,0.00003101,0.,-0.00000327,0.00000314,0.,-0.00000112,-0.00000168,0.,-
 0.00002788,-0.00001991,0.,0.00000468,0.00001516,0.,-0.00006193,0.00003
 711,0.,0.00002563,0.00001946,0.,0.00048841,0.00028021,0.,0.00004575,-0
 .00013036,0.,-0.00090164,-0.00047803,0.,0.00046049,0.00022799,0.,-0.00
 402036,0.00013292,0.,-0.00029013,0.00132756,0.,0.00073044,0.03142436,0
 .,0.00124618,0.00018444,0.,-0.05840839,0.01284785,0.,0.05631278,0.0000
 2667,-0.00005126,0.,0.00000314,-0.00001122,0.,-0.00000724,0.00000542,0
 .,0.00001058,0.00008173,0.,-0.00000947,-0.00001828,0.,-0.00006437,-0.0
 0008586,0.,0.00000127,0.00000904,0.,0.00009080,0.00011017,0.,-0.000000
 90,-0.00002541,0.,-0.00017040,0.00020402,0.,0.00009236,0.00020301,0.,0
 .00219201,0.00167806,0.,0.00005776,-0.00065773,0.,-0.00160760,-0.01047
 887,0.,0.00027024,0.00124410,0.,0.01730427,-0.34508063,0.,-0.02072397,
 0.36363300,0.,0.,-0.00001209,0.,0.,-0.00003097,0.,0.,0.00004419,0.,0.,
 0.00009403,0.,0.,-0.00000196,0.,0.,-0.00002949,0.,0.,0.00006887,0.,0.,
 -0.00051675,0.,0.,0.00001338,0.,0.,-0.00051861,0.,0.,-0.00027555,0.,0.
 ,0.01072916,0.,0.,0.00012659,0.,0.,0.00399001,0.,0.,-0.00776106,0.,0.,
 -0.02931120,0.,0.,0.02073420,0.00000518,-0.00000348,0.,-0.00000112,-0.
 00000724,0.,-0.00000839,0.00000447,0.,0.00001074,-0.00000073,0.,-0.000
 00129,-0.00000510,0.,-0.00003840,0.00010911,0.,0.00002271,0.00002678,0
 .,0.00068304,0.00016526,0.,0.00005126,-0.00019167,0.,-0.00076053,0.000
 20205,0.,0.00085625,0.00053748,0.,0.00132088,-0.00151846,0.,0.00012291
 ,0.00009513,0.,-0.02137212,-0.01768381,0.,-0.00343153,0.00307694,0.,-0
 .26362335,-0.12246934,0.,0.00438719,0.00253485,0.,0.28177658,-0.000019
 11,0.00002571,0.,-0.00000168,0.00000542,0.,0.00000447,-0.00000326,0.,0
 .00001215,-0.00004977,0.,0.00000493,0.00001265,0.,0.00005036,0.0000709
 2,0.,-0.00000324,-0.00001391,0.,-0.00013923,-0.00011105,0.,-0.00001609
 ,0.00003120,0.,0.00089224,-0.00002109,0.,0.00027255,-0.00165381,0.,-0.
 00075728,-0.00056868,0.,-0.00022605,0.00018605,0.,0.01189366,0.0137599
 1,0.,0.00303717,-0.00044490,0.,-0.12495533,-0.13553573,0.,-0.02517727,
 -0.01075930,0.,0.13512775,0.13506964,0.,0.,-0.00001665,0.,0.,0.0000441
 9,0.,0.,-0.00003003,0.,0.,-0.00012408,0.,0.,0.00000763,0.,0.,0.0000229
 7,0.,0.,0.00001414,0.,0.,0.00010993,0.,0.,0.00003205,0.,0.,0.00021105,
 0.,0.,0.00106027,0.,0.,-0.00729470,0.,0.,-0.00013820,0.,0.,0.00504090,
 0.,0.,0.01217624,0.,0.,-0.03476285,0.,0.,0.00265727,0.,0.,0.02098988\\
 -0.00001485,0.00001166,0.,-0.00000281,0.00001913,0.,-0.00002461,-0.000
 01342,0.,0.00000378,-0.00001745,0.,0.00001589,0.00002092,0.,0.00002859
 ,0.00001714,0.,0.00000874,-0.00001105,0.,0.00004215,-0.00008816,0.,-0.
 00002164,0.00000779,0.,-0.00004215,0.00008816,0.,0.00002164,-0.0000077
 9,0.,-0.00002859,-0.00001714,0.,-0.00000874,0.00001105,0.,-0.00000378,
 0.00001745,0.,-0.00001589,-0.00002092,0.,0.00001485,-0.00001166,0.,0.0
 0000281,-0.00001913,0.,0.00002461,0.00001342,0.\\\@


 GARLIC THEN HAVE POWER TO SAVE FROM DEATH
 BEAR WITH IT THOUGH IT MAKETH UNSAVORY BREATH,
 AND SCORN NOT GARLIC LIKE SOME THAT THINK
 IT ONLY MAKETH MEN WINK AND DRINK AND STINK.
   --  SIR JOHN HARRINGTON,
       "THE ENGLISHMAN'S DOCTOR", 1609
 Job cpu time:  0 days  0 hours  1 minutes 20.0 seconds.
 File lengths (MBytes):  RWF=     31 Int=      0 D2E=      0 Chk=      3 Scr=      1
 Normal termination of Gaussian 09 at Tue Mar  2 17:00:07 2021.
