 octa_1,2-cis.com

 Entering Gaussian System, Link 0=g09
 Input=test.com
 Output=test.log
 Initial command:
 /home/student/g09/l1.exe /home/student/Aniruddha_1811022/Lab_3/Gau-12063.inp -scrdir=/home/student/Aniruddha_1811022/Lab_3/
 Entering Link 1 = /home/student/g09/l1.exe PID=     12066.
  
 Copyright (c) 1988,1990,1992,1993,1995,1998,2003,2009,2011,
            Gaussian, Inc.  All Rights Reserved.
  
 This is part of the Gaussian(R) 09 program.  It is based on
 the Gaussian(R) 03 system (copyright 2003, Gaussian, Inc.),
 the Gaussian(R) 98 system (copyright 1998, Gaussian, Inc.),
 the Gaussian(R) 94 system (copyright 1995, Gaussian, Inc.),
 the Gaussian 92(TM) system (copyright 1992, Gaussian, Inc.),
 the Gaussian 90(TM) system (copyright 1990, Gaussian, Inc.),
 the Gaussian 88(TM) system (copyright 1988, Gaussian, Inc.),
 the Gaussian 86(TM) system (copyright 1986, Carnegie Mellon
 University), and the Gaussian 82(TM) system (copyright 1983,
 Carnegie Mellon University). Gaussian is a federally registered
 trademark of Gaussian, Inc.
  
 This software contains proprietary and confidential information,
 including trade secrets, belonging to Gaussian, Inc.
  
 This software is provided under written license and may be
 used, copied, transmitted, or stored only in accord with that
 written license.
  
 The following legend is applicable only to US Government
 contracts under FAR:
  
                    RESTRICTED RIGHTS LEGEND
  
 Use, reproduction and disclosure by the US Government is
 subject to restrictions as set forth in subparagraphs (a)
 and (c) of the Commercial Computer Software - Restricted
 Rights clause in FAR 52.227-19.
  
 Gaussian, Inc.
 340 Quinnipiac St., Bldg. 40, Wallingford CT 06492
  
  
 ---------------------------------------------------------------
 Warning -- This program may not be used in any manner that
 competes with the business of Gaussian, Inc. or will provide
 assistance to any competitor of Gaussian, Inc.  The licensee
 of this program is prohibited from giving any competitor of
 Gaussian, Inc. access to this program.  By using this program,
 the user acknowledges that Gaussian, Inc. is engaged in the
 business of creating and licensing software in the field of
 computational chemistry and represents and warrants to the
 licensee that it is not a competitor of Gaussian, Inc. and that
 it will not use this program in any manner prohibited above.
 ---------------------------------------------------------------
  

 Cite this work as:
 Gaussian 09, Revision C.01,
 M. J. Frisch, G. W. Trucks, H. B. Schlegel, G. E. Scuseria, 
 M. A. Robb, J. R. Cheeseman, G. Scalmani, V. Barone, B. Mennucci, 
 G. A. Petersson, H. Nakatsuji, M. Caricato, X. Li, H. P. Hratchian, 
 A. F. Izmaylov, J. Bloino, G. Zheng, J. L. Sonnenberg, M. Hada, 
 M. Ehara, K. Toyota, R. Fukuda, J. Hasegawa, M. Ishida, T. Nakajima, 
 Y. Honda, O. Kitao, H. Nakai, T. Vreven, J. A. Montgomery, Jr., 
 J. E. Peralta, F. Ogliaro, M. Bearpark, J. J. Heyd, E. Brothers, 
 K. N. Kudin, V. N. Staroverov, T. Keith, R. Kobayashi, J. Normand, 
 K. Raghavachari, A. Rendell, J. C. Burant, S. S. Iyengar, J. Tomasi, 
 M. Cossi, N. Rega, J. M. Millam, M. Klene, J. E. Knox, J. B. Cross, 
 V. Bakken, C. Adamo, J. Jaramillo, R. Gomperts, R. E. Stratmann, 
 O. Yazyev, A. J. Austin, R. Cammi, C. Pomelli, J. W. Ochterski, 
 R. L. Martin, K. Morokuma, V. G. Zakrzewski, G. A. Voth, 
 P. Salvador, J. J. Dannenberg, S. Dapprich, A. D. Daniels, 
 O. Farkas, J. B. Foresman, J. V. Ortiz, J. Cioslowski, 
 and D. J. Fox, Gaussian, Inc., Wallingford CT, 2010.
 
 ******************************************
 Gaussian 09:  EM64L-G09RevC.01 23-Sep-2011
                 2-Mar-2021 
 ******************************************
 %chk=test.chk
 -----------------------------------------
 # b3lyp/6-31g* geom=connectivity opt freq
 -----------------------------------------
 1/14=-1,18=20,19=15,26=3,38=1,57=2/1,3;
 2/9=110,12=2,17=6,18=5,40=1/2;
 3/5=1,6=6,7=1,11=2,16=1,25=1,30=1,71=1,74=-5/1,2,3;
 4//1;
 5/5=2,38=5/2;
 6/7=2,8=2,9=2,10=2,28=1/1;
 7//1,2,3,16;
 1/14=-1,18=20,19=15/3(2);
 2/9=110/2;
 99//99;
 2/9=110/2;
 3/5=1,6=6,7=1,11=2,16=1,25=1,30=1,71=1,74=-5/1,2,3;
 4/5=5,16=3/1;
 5/5=2,38=5/2;
 7//1,2,3,16;
 1/14=-1,18=20,19=15/3(-5);
 2/9=110/2;
 6/7=2,8=2,9=2,10=2,19=2,28=1/1;
 99/9=1/99;
 -------------------
 Title Card Required
 -------------------
 Charge =  0 Multiplicity = 1
 Symbolic Z-Matrix:
 C                    -0.18565  -3.76841   0. 
 H                     0.00824  -4.81679   0. 
 H                    -1.19337  -3.41742   0. 
 C                     0.84073  -2.8836    0. 
 H                     1.84845  -3.23459   0. 
 C                     0.56168  -1.37471   0. 
 H                     1.37722  -0.68654   0. 
 C                    -0.71325  -0.9155    0. 
 H                    -1.5215   -1.59214   0. 
 C                    -1.00277   0.57684   0. 
 H                    -2.00539   0.90218   0. 
 C                     0.00798   1.47947   0. 
 H                     1.02168   1.14617   0. 
 C                    -0.29743   2.98325   0. 
 H                    -1.31113   3.31655   0. 
 C                     0.71331   3.88588   0. 
 H                     0.50112   4.93071   0. 
 H                     1.72702   3.55257   0. 
 

 GradGradGradGradGradGradGradGradGradGradGradGradGradGradGradGradGradGrad
 Berny optimization.
 Initialization pass.
                           ----------------------------
                           !    Initial Parameters    !
                           ! (Angstroms and Degrees)  !
 --------------------------                            --------------------------
 ! Name  Definition              Value          Derivative Info.                !
 --------------------------------------------------------------------------------
 ! R1    R(1,2)                  1.0662         estimate D2E/DX2                !
 ! R2    R(1,3)                  1.0671         estimate D2E/DX2                !
 ! R3    R(1,4)                  1.3551         estimate D2E/DX2                !
 ! R4    R(4,5)                  1.0671         estimate D2E/DX2                !
 ! R5    R(4,6)                  1.5345         estimate D2E/DX2                !
 ! R6    R(6,7)                  1.0671         estimate D2E/DX2                !
 ! R7    R(6,8)                  1.3551         estimate D2E/DX2                !
 ! R8    R(8,9)                  1.0541         estimate D2E/DX2                !
 ! R9    R(8,10)                 1.5202         estimate D2E/DX2                !
 ! R10   R(10,11)                1.0541         estimate D2E/DX2                !
 ! R11   R(10,12)                1.3551         estimate D2E/DX2                !
 ! R12   R(12,13)                1.0671         estimate D2E/DX2                !
 ! R13   R(12,14)                1.5345         estimate D2E/DX2                !
 ! R14   R(14,15)                1.0671         estimate D2E/DX2                !
 ! R15   R(14,16)                1.3551         estimate D2E/DX2                !
 ! R16   R(16,17)                1.0662         estimate D2E/DX2                !
 ! R17   R(16,18)                1.0671         estimate D2E/DX2                !
 ! A1    A(2,1,3)              119.6808         estimate D2E/DX2                !
 ! A2    A(2,1,4)              120.2859         estimate D2E/DX2                !
 ! A3    A(3,1,4)              120.0332         estimate D2E/DX2                !
 ! A4    A(1,4,5)              120.0332         estimate D2E/DX2                !
 ! A5    A(1,4,6)              120.2859         estimate D2E/DX2                !
 ! A6    A(5,4,6)              119.6808         estimate D2E/DX2                !
 ! A7    A(4,6,7)              119.6808         estimate D2E/DX2                !
 ! A8    A(4,6,8)              120.2859         estimate D2E/DX2                !
 ! A9    A(7,6,8)              120.0332         estimate D2E/DX2                !
 ! A10   A(6,8,9)              120.2567         estimate D2E/DX2                !
 ! A11   A(6,8,10)             120.7871         estimate D2E/DX2                !
 ! A12   A(9,8,10)             118.9562         estimate D2E/DX2                !
 ! A13   A(8,10,11)            118.9562         estimate D2E/DX2                !
 ! A14   A(8,10,12)            120.7871         estimate D2E/DX2                !
 ! A15   A(11,10,12)           120.2567         estimate D2E/DX2                !
 ! A16   A(10,12,13)           120.0332         estimate D2E/DX2                !
 ! A17   A(10,12,14)           120.2859         estimate D2E/DX2                !
 ! A18   A(13,12,14)           119.6808         estimate D2E/DX2                !
 ! A19   A(12,14,15)           119.6808         estimate D2E/DX2                !
 ! A20   A(12,14,16)           120.2859         estimate D2E/DX2                !
 ! A21   A(15,14,16)           120.0332         estimate D2E/DX2                !
 ! A22   A(14,16,17)           120.2859         estimate D2E/DX2                !
 ! A23   A(14,16,18)           120.0332         estimate D2E/DX2                !
 ! A24   A(17,16,18)           119.6808         estimate D2E/DX2                !
 ! D1    D(2,1,4,5)              0.0            estimate D2E/DX2                !
 ! D2    D(2,1,4,6)            180.0            estimate D2E/DX2                !
 ! D3    D(3,1,4,5)            180.0            estimate D2E/DX2                !
 ! D4    D(3,1,4,6)              0.0            estimate D2E/DX2                !
 ! D5    D(1,4,6,7)            180.0            estimate D2E/DX2                !
 ! D6    D(1,4,6,8)              0.0            estimate D2E/DX2                !
 ! D7    D(5,4,6,7)              0.0            estimate D2E/DX2                !
 ! D8    D(5,4,6,8)            180.0            estimate D2E/DX2                !
 ! D9    D(4,6,8,9)              0.0            estimate D2E/DX2                !
 ! D10   D(4,6,8,10)           180.0            estimate D2E/DX2                !
 ! D11   D(7,6,8,9)            180.0            estimate D2E/DX2                !
 ! D12   D(7,6,8,10)             0.0            estimate D2E/DX2                !
 ! D13   D(6,8,10,11)          180.0            estimate D2E/DX2                !
 ! D14   D(6,8,10,12)            0.0            estimate D2E/DX2                !
 ! D15   D(9,8,10,11)            0.0            estimate D2E/DX2                !
 ! D16   D(9,8,10,12)          180.0            estimate D2E/DX2                !
 ! D17   D(8,10,12,13)           0.0            estimate D2E/DX2                !
 ! D18   D(8,10,12,14)         180.0            estimate D2E/DX2                !
 ! D19   D(11,10,12,13)        180.0            estimate D2E/DX2                !
 ! D20   D(11,10,12,14)          0.0            estimate D2E/DX2                !
 ! D21   D(10,12,14,15)          0.0            estimate D2E/DX2                !
 ! D22   D(10,12,14,16)        180.0            estimate D2E/DX2                !
 ! D23   D(13,12,14,15)        180.0            estimate D2E/DX2                !
 ! D24   D(13,12,14,16)          0.0            estimate D2E/DX2                !
 ! D25   D(12,14,16,17)        180.0            estimate D2E/DX2                !
 ! D26   D(12,14,16,18)          0.0            estimate D2E/DX2                !
 ! D27   D(15,14,16,17)          0.0            estimate D2E/DX2                !
 ! D28   D(15,14,16,18)        180.0            estimate D2E/DX2                !
 --------------------------------------------------------------------------------
 Trust Radius=3.00D-01 FncErr=1.00D-07 GrdErr=1.00D-06
 Number of steps in this run=     79 maximum allowed number of steps=    108.
 GradGradGradGradGradGradGradGradGradGradGradGradGradGradGradGradGradGrad

                          Input orientation:                          
 ---------------------------------------------------------------------
 Center     Atomic      Atomic             Coordinates (Angstroms)
 Number     Number       Type             X           Y           Z
 ---------------------------------------------------------------------
      1          6           0       -0.185645   -3.768409    0.000000
      2          1           0        0.008239   -4.816793    0.000000
      3          1           0       -1.193366   -3.417422    0.000000
      4          6           0        0.840731   -2.883601    0.000000
      5          1           0        1.848452   -3.234588    0.000000
      6          6           0        0.561682   -1.374712    0.000000
      7          1           0        1.377224   -0.686537    0.000000
      8          6           0       -0.713253   -0.915501    0.000000
      9          1           0       -1.521498   -1.592140    0.000000
     10          6           0       -1.002765    0.576843    0.000000
     11          1           0       -2.005392    0.902176    0.000000
     12          6           0        0.007975    1.479472    0.000000
     13          1           0        1.021682    1.146168    0.000000
     14          6           0       -0.297428    2.983248    0.000000
     15          1           0       -1.311135    3.316552    0.000000
     16          6           0        0.713312    3.885877    0.000000
     17          1           0        0.501116    4.930708    0.000000
     18          1           0        1.727019    3.552573    0.000000
 ---------------------------------------------------------------------
                    Distance matrix (angstroms):
                    1          2          3          4          5
     1  C    0.000000
     2  H    1.066161   0.000000
     3  H    1.067095   1.844477   0.000000
     4  C    1.355114   2.104822   2.102978   0.000000
     5  H    2.102978   2.426882   3.047308   1.067095   0.000000
     6  C    2.507645   3.486290   2.693113   1.534475   2.261618
     7  H    3.455502   4.351222   3.750422   2.261618   2.591259
     8  C    2.901285   3.967446   2.547571   2.507645   3.455502
     9  H    2.553556   3.569101   1.854542   2.692211   3.748893
    10  C    4.421414   5.487571   3.998810   3.920861   4.759879
    11  H    5.012568   6.063111   4.395260   4.736298   5.653753
    12  C    5.251451   6.296265   5.042101   4.441834   5.060604
    13  H    5.060702   6.048468   5.072750   4.033829   4.458091
    14  C    6.752582   7.806028   6.463070   5.976230   6.577711
    15  H    7.173799   8.239663   6.735003   6.562958   7.273268
    16  C    7.706894   8.731185   7.548085   6.770677   7.210379
    17  H    8.726184   9.759954   8.518365   7.821686   8.275710
    18  H    7.566707   8.544032   7.557081   6.496910   6.788247
                    6          7          8          9         10
     6  C    0.000000
     7  H    1.067095   0.000000
     8  C    1.355114   2.102978   0.000000
     9  H    2.094497   3.036891   1.054088   0.000000
    10  C    2.501212   2.694527   1.520167   2.230151   0.000000
    11  H    3.431339   3.737124   2.230151   2.540820   1.054088
    12  C    2.907397   2.562506   2.501212   3.431339   1.355114
    13  H    2.562506   1.866873   2.694527   3.737124   2.102978
    14  C    4.441834   4.033829   3.920861   4.736298   2.507645
    15  H    5.051277   4.822032   4.274077   4.913197   2.757008
    16  C    5.262773   4.620362   5.008824   5.916337   3.727549
    17  H    6.305711   5.685157   5.971001   6.829240   4.606278
    18  H    5.063215   4.253517   5.091032   6.084483   4.038154
                   11         12         13         14         15
    11  H    0.000000
    12  C    2.094497   0.000000
    13  H    3.036891   1.067095   0.000000
    14  C    2.692211   1.534475   2.261618   0.000000
    15  H    2.512211   2.261618   3.186315   1.067095   0.000000
    16  C    4.036561   2.507645   2.757008   1.355114   2.102978
    17  H    4.744645   3.486290   3.820175   2.104822   2.426882
    18  H    4.577717   2.693113   2.507645   2.102978   3.047308
                   16         17         18
    16  C    0.000000
    17  H    1.066161   0.000000
    18  H    1.067095   1.844477   0.000000
 Stoichiometry    C8H10
 Framework group  CS[SG(C8H10)]
 Deg. of freedom    33
 Full point group                 CS      NOp   2
 Largest Abelian subgroup         CS      NOp   2
 Largest concise Abelian subgroup C1      NOp   1
                         Standard orientation:                         
 ---------------------------------------------------------------------
 Center     Atomic      Atomic             Coordinates (Angstroms)
 Number     Number       Type             X           Y           Z
 ---------------------------------------------------------------------
      1          6           0       -0.899933   -3.664081    0.000000
      2          1           0       -0.909259   -4.730202    0.000000
      3          1           0       -1.822365   -3.127600    0.000000
      4          6           0        0.276168   -2.990939    0.000000
      5          1           0        1.198600   -3.527420    0.000000
      6          6           0        0.289591   -1.456522    0.000000
      7          1           0        1.221268   -0.936261    0.000000
      8          6           0       -0.874553   -0.762907    0.000000
      9          1           0       -1.796870   -1.273234    0.000000
     10          6           0       -0.874553    0.757260    0.000000
     11          1           0       -1.796870    1.267586    0.000000
     12          6           0        0.289591    1.450875    0.000000
     13          1           0        1.221268    0.930613    0.000000
     14          6           0        0.276168    2.985291    0.000000
     15          1           0       -0.655508    3.505553    0.000000
     16          6           0        1.440313    3.678906    0.000000
     17          1           0        1.430987    4.745027    0.000000
     18          1           0        2.371989    3.158644    0.000000
 ---------------------------------------------------------------------
 Rotational constants (GHZ):      8.8315764      0.7015463      0.6499192
 Standard basis: 6-31G(d) (6D, 7F)
 There are   108 symmetry adapted basis functions of A'  symmetry.
 There are    32 symmetry adapted basis functions of A"  symmetry.
 Integral buffers will be    131072 words long.
 Raffenetti 2 integral format.
 Two-electron integral symmetry is turned on.
   140 basis functions,   264 primitive gaussians,   140 cartesian basis functions
    29 alpha electrons       29 beta electrons
       nuclear repulsion energy       303.0735532280 Hartrees.
 NAtoms=   18 NActive=   18 NUniq=   18 SFac= 1.00D+00 NAtFMM=   60 NAOKFM=F Big=F
 One-electron integrals computed using PRISM.
 NBasis=   140 RedAO= T  NBF=   108    32
 NBsUse=   140 1.00D-06 NBFU=   108    32
 Harris functional with IExCor=  402 diagonalized for initial guess.
 ExpMin= 1.61D-01 ExpMax= 3.05D+03 ExpMxC= 4.57D+02 IAcc=1 IRadAn=         1 AccDes= 0.00D+00
 HarFok:  IExCor=  402 AccDes= 0.00D+00 IRadAn=         1 IDoV= 1
 ScaDFX=  1.000000  1.000000  1.000000  1.000000
 FoFCou: FMM=F IPFlag=           0 FMFlag=      100000 FMFlg1=           0
         NFxFlg=           0 DoJE=T BraDBF=F KetDBF=T FulRan=T
         Omega=  0.000000  0.000000  1.000000  0.000000  0.000000 ICntrl=     500 IOpCl=  0
         NMat0=    1 NMatS0=    1 NMatT0=    0 NMatD0=    1 NMtDS0=    0 NMtDT0=    0
         I1Cent=           4 NGrid=           0.
 Petite list used in FoFCou.
 Initial guess orbital symmetries:
       Occupied  (A') (A') (A') (A') (A') (A') (A') (A') (A') (A')
                 (A') (A') (A') (A') (A') (A') (A') (A') (A') (A')
                 (A') (A') (A') (A') (A') (A") (A") (A") (A")
       Virtual   (A") (A") (A") (A") (A') (A') (A') (A') (A') (A')
                 (A') (A') (A') (A') (A') (A') (A') (A') (A') (A')
                 (A') (A') (A') (A") (A") (A') (A') (A") (A') (A')
                 (A") (A') (A') (A") (A') (A') (A") (A") (A") (A')
                 (A') (A') (A') (A') (A') (A') (A') (A') (A') (A')
                 (A') (A') (A') (A') (A') (A') (A') (A') (A') (A")
                 (A') (A") (A") (A') (A") (A") (A') (A") (A") (A')
                 (A") (A") (A') (A') (A') (A') (A') (A') (A') (A")
                 (A') (A") (A') (A') (A') (A') (A") (A') (A") (A')
                 (A") (A") (A') (A") (A') (A') (A') (A') (A') (A')
                 (A') (A') (A') (A') (A') (A') (A') (A') (A') (A')
                 (A')
 The electronic state of the initial guess is 1-A'.
 Requested convergence on RMS density matrix=1.00D-08 within 128 cycles.
 Requested convergence on MAX density matrix=1.00D-06.
 Requested convergence on             energy=1.00D-06.
 No special actions if energy rises.
 Integral accuracy reduced to 1.0D-05 until final iterations.
 Initial convergence to 1.0D-05 achieved.  Increase integral accuracy.
 SCF Done:  E(RB3LYP) =  -310.770759165     A.U. after   14 cycles
             Convg  =    0.4295D-08             -V/T =  2.0103

 **********************************************************************

            Population analysis using the SCF density.

 **********************************************************************

 Orbital symmetries:
       Occupied  (A') (A') (A') (A') (A') (A') (A') (A') (A') (A')
                 (A') (A') (A') (A') (A') (A') (A') (A') (A') (A')
                 (A') (A') (A') (A') (A') (A") (A") (A") (A")
       Virtual   (A") (A") (A") (A') (A") (A') (A') (A') (A') (A')
                 (A') (A') (A') (A') (A') (A') (A') (A') (A') (A')
                 (A') (A') (A') (A") (A") (A') (A') (A") (A') (A')
                 (A") (A') (A") (A') (A") (A') (A') (A") (A") (A')
                 (A') (A') (A') (A') (A') (A') (A') (A') (A') (A')
                 (A') (A') (A') (A') (A') (A') (A') (A') (A') (A')
                 (A") (A') (A") (A") (A") (A") (A') (A") (A') (A")
                 (A") (A") (A') (A') (A') (A') (A') (A') (A") (A')
                 (A') (A") (A') (A') (A') (A") (A') (A") (A') (A')
                 (A") (A") (A') (A") (A') (A') (A') (A') (A') (A')
                 (A') (A') (A') (A') (A') (A') (A') (A') (A') (A')
                 (A')
 The electronic state is 1-A'.
 Alpha  occ. eigenvalues --  -10.19671 -10.19617 -10.19356 -10.19276 -10.19226
 Alpha  occ. eigenvalues --  -10.19114 -10.17871 -10.17791  -0.81555  -0.78520
 Alpha  occ. eigenvalues --   -0.74841  -0.69922  -0.62953  -0.57981  -0.56804
 Alpha  occ. eigenvalues --   -0.52345  -0.49145  -0.46631  -0.44059  -0.43046
 Alpha  occ. eigenvalues --   -0.39851  -0.39146  -0.36059  -0.35631  -0.33978
 Alpha  occ. eigenvalues --   -0.33445  -0.30110  -0.25439  -0.19671
 Alpha virt. eigenvalues --   -0.05440   0.01068   0.06083   0.09584   0.11467
 Alpha virt. eigenvalues --    0.12293   0.12989   0.13349   0.14349   0.17488
 Alpha virt. eigenvalues --    0.18666   0.19671   0.23075   0.24795   0.27843
 Alpha virt. eigenvalues --    0.29598   0.31055   0.35257   0.37335   0.40183
 Alpha virt. eigenvalues --    0.45590   0.49191   0.51594   0.52115   0.54211
 Alpha virt. eigenvalues --    0.56878   0.57606   0.57785   0.59723   0.60802
 Alpha virt. eigenvalues --    0.61729   0.63467   0.64116   0.64992   0.65778
 Alpha virt. eigenvalues --    0.67604   0.68153   0.70178   0.71807   0.83234
 Alpha virt. eigenvalues --    0.84109   0.86945   0.87996   0.89080   0.89733
 Alpha virt. eigenvalues --    0.91206   0.93756   0.94029   0.95765   0.97744
 Alpha virt. eigenvalues --    1.00624   1.01610   1.06688   1.07774   1.09530
 Alpha virt. eigenvalues --    1.11981   1.15764   1.18336   1.24255   1.31172
 Alpha virt. eigenvalues --    1.32590   1.35801   1.36349   1.37042   1.46113
 Alpha virt. eigenvalues --    1.48397   1.50139   1.55488   1.55832   1.57813
 Alpha virt. eigenvalues --    1.69600   1.71848   1.75345   1.77295   1.77350
 Alpha virt. eigenvalues --    1.92026   1.96249   1.98310   2.00563   2.01438
 Alpha virt. eigenvalues --    2.05326   2.10080   2.12991   2.17295   2.21224
 Alpha virt. eigenvalues --    2.22561   2.22903   2.28407   2.29020   2.35307
 Alpha virt. eigenvalues --    2.40547   2.41193   2.45319   2.51182   2.54196
 Alpha virt. eigenvalues --    2.57974   2.67121   2.71743   2.80710   2.83370
 Alpha virt. eigenvalues --    2.92592   3.01436   3.12333   4.05730   4.07462
 Alpha virt. eigenvalues --    4.10375   4.17188   4.18635   4.32333   4.42300
 Alpha virt. eigenvalues --    4.53314
          Condensed to atoms (all electrons):
              1          2          3          4          5          6
     1  C    5.050785   0.368086   0.363730   0.653989  -0.054767  -0.038488
     2  H    0.368086   0.556233  -0.040855  -0.025239  -0.006627   0.004497
     3  H    0.363730  -0.040855   0.565170  -0.029875   0.006274  -0.019053
     4  C    0.653989  -0.025239  -0.029875   4.795582   0.365942   0.409373
     5  H   -0.054767  -0.006627   0.006274   0.365942   0.595619  -0.040254
     6  C   -0.038488   0.004497  -0.019053   0.409373  -0.040254   4.914704
     7  H    0.004975  -0.000126  -0.000027  -0.041713  -0.003609   0.354811
     8  C   -0.022566   0.000288   0.005775  -0.024773   0.004469   0.636802
     9  H    0.003582  -0.000010   0.005166  -0.013768   0.000012  -0.052848
    10  C    0.000492  -0.000006   0.000086   0.003972  -0.000108  -0.030476
    11  H    0.000003   0.000000   0.000021  -0.000107   0.000002   0.004851
    12  C   -0.000008   0.000000   0.000000   0.000377   0.000004  -0.019505
    13  H   -0.000001   0.000000   0.000002   0.000103   0.000015   0.004921
    14  C    0.000000   0.000000   0.000000  -0.000006   0.000000   0.000401
    15  H    0.000000   0.000000   0.000000   0.000000   0.000000  -0.000001
    16  C    0.000000   0.000000   0.000000   0.000000   0.000000   0.000019
    17  H    0.000000   0.000000   0.000000   0.000000   0.000000   0.000000
    18  H    0.000000   0.000000   0.000000   0.000000   0.000000  -0.000005
              7          8          9         10         11         12
     1  C    0.004975  -0.022566   0.003582   0.000492   0.000003  -0.000008
     2  H   -0.000126   0.000288  -0.000010  -0.000006   0.000000   0.000000
     3  H   -0.000027   0.005775   0.005166   0.000086   0.000021   0.000000
     4  C   -0.041713  -0.024773  -0.013768   0.003972  -0.000107   0.000377
     5  H   -0.003609   0.004469   0.000012  -0.000108   0.000002   0.000004
     6  C    0.354811   0.636802  -0.052848  -0.030476   0.004851  -0.019505
     7  H    0.605066  -0.051425   0.006917  -0.015073  -0.000023   0.004215
     8  C   -0.051425   4.907454   0.356590   0.394772  -0.042333  -0.027319
     9  H    0.006917   0.356590   0.604282  -0.039577  -0.004217   0.004564
    10  C   -0.015073   0.394772  -0.039577   4.920411   0.365620   0.618000
    11  H   -0.000023  -0.042333  -0.004217   0.365620   0.600356  -0.057087
    12  C    0.004215  -0.027319   0.004564   0.618000  -0.057087   4.891058
    13  H    0.004228  -0.015241  -0.000045  -0.046778   0.006590   0.354838
    14  C    0.000207   0.003916  -0.000092  -0.019069  -0.008417   0.419012
    15  H    0.000001   0.000086  -0.000001  -0.004115   0.003963  -0.045582
    16  C   -0.000004  -0.000215   0.000001   0.002310   0.000400  -0.025878
    17  H    0.000000   0.000002   0.000000  -0.000175  -0.000007   0.003890
    18  H    0.000001   0.000001   0.000000   0.000428   0.000014  -0.012099
             13         14         15         16         17         18
     1  C   -0.000001   0.000000   0.000000   0.000000   0.000000   0.000000
     2  H    0.000000   0.000000   0.000000   0.000000   0.000000   0.000000
     3  H    0.000002   0.000000   0.000000   0.000000   0.000000   0.000000
     4  C    0.000103  -0.000006   0.000000   0.000000   0.000000   0.000000
     5  H    0.000015   0.000000   0.000000   0.000000   0.000000   0.000000
     6  C    0.004921   0.000401  -0.000001   0.000019   0.000000  -0.000005
     7  H    0.004228   0.000207   0.000001  -0.000004   0.000000   0.000001
     8  C   -0.015241   0.003916   0.000086  -0.000215   0.000002   0.000001
     9  H   -0.000045  -0.000092  -0.000001   0.000001   0.000000   0.000000
    10  C   -0.046778  -0.019069  -0.004115   0.002310  -0.000175   0.000428
    11  H    0.006590  -0.008417   0.003963   0.000400  -0.000007   0.000014
    12  C    0.354838   0.419012  -0.045582  -0.025878   0.003890  -0.012099
    13  H    0.598390  -0.043522   0.003887  -0.003938  -0.000005   0.004827
    14  C   -0.043522   4.783577   0.369245   0.627182  -0.023483  -0.035386
    15  H    0.003887   0.369245   0.593780  -0.052880  -0.006583   0.005884
    16  C   -0.003938   0.627182  -0.052880   5.064159   0.365687   0.371986
    17  H   -0.000005  -0.023483  -0.006583   0.365687   0.558609  -0.041108
    18  H    0.004827  -0.035386   0.005884   0.371986  -0.041108   0.563156
 Mulliken atomic charges:
              1
     1  C   -0.329812
     2  H    0.143759
     3  H    0.143587
     4  C   -0.093857
     5  H    0.133028
     6  C   -0.129747
     7  H    0.131581
     8  C   -0.126283
     9  H    0.129445
    10  C   -0.150714
    11  H    0.130373
    12  C   -0.108483
    13  H    0.131727
    14  C   -0.073564
    15  H    0.132316
    16  C   -0.348829
    17  H    0.143173
    18  H    0.142300
 Sum of Mulliken atomic charges =   0.00000
 Mulliken charges with hydrogens summed into heavy atoms:
              1
     1  C   -0.042467
     4  C    0.039171
     6  C    0.001834
     8  C    0.003162
    10  C   -0.020340
    12  C    0.023244
    14  C    0.058752
    16  C   -0.063356
 Sum of Mulliken charges with hydrogens summed into heavy atoms =   0.00000
 Electronic spatial extent (au):  <R**2>=           1701.8596
 Charge=              0.0000 electrons
 Dipole moment (field-independent basis, Debye):
    X=             -0.0616    Y=             -0.0250    Z=              0.0000  Tot=              0.0664
 Quadrupole moment (field-independent basis, Debye-Ang):
   XX=            -43.1975   YY=            -44.6590   ZZ=            -53.7735
   XY=             -0.9921   XZ=              0.0000   YZ=              0.0000
 Traceless Quadrupole moment (field-independent basis, Debye-Ang):
   XX=              4.0125   YY=              2.5510   ZZ=             -6.5635
   XY=             -0.9921   XZ=              0.0000   YZ=              0.0000
 Octapole moment (field-independent basis, Debye-Ang**2):
  XXX=             -0.8861  YYY=              0.4931  ZZZ=              0.0000  XYY=             -1.0342
  XXY=             -0.9091  XXZ=              0.0000  XZZ=             -0.1923  YZZ=             -0.1652
  YYZ=              0.0000  XYZ=              0.0000
 Hexadecapole moment (field-independent basis, Debye-Ang**3):
 XXXX=           -274.7605 YYYY=          -1836.1562 ZZZZ=            -55.9655 XXXY=           -165.7005
 XXXZ=              0.0000 YYYX=           -174.4529 YYYZ=              0.0000 ZZZX=              0.0000
 ZZZY=              0.0000 XXYY=           -358.9369 XXZZ=            -62.3378 YYZZ=           -384.9828
 XXYZ=              0.0000 YYXZ=              0.0000 ZZXY=            -65.3509
 N-N= 3.030735532280D+02 E-N=-1.324651767627D+03  KE= 3.075985811983D+02
 Symmetry A'   KE= 2.991366463083D+02
 Symmetry A"   KE= 8.461934890023D+00
 Calling FoFJK, ICntrl=      2127 FMM=F ISym2X=1 I1Cent= 0 IOpClX= 0 NMat=1 NMatS=1 NMatT=0.
 ***** Axes restored to original set *****
 -------------------------------------------------------------------
 Center     Atomic                   Forces (Hartrees/Bohr)
 Number     Number              X              Y              Z
 -------------------------------------------------------------------
      1        6           0.031515417    0.015016950    0.000000000
      2        1          -0.000823528   -0.014376541    0.000000000
      3        1          -0.012599930   -0.003778149    0.000000000
      4        6          -0.038403442    0.029226793    0.000000000
      5        1           0.014441723   -0.001502245    0.000000000
      6        6          -0.017966228   -0.051665759    0.000000000
      7        1           0.012551840    0.002220061    0.000000000
      8        6           0.026331078    0.055674155    0.000000000
      9        1          -0.019715031   -0.009624458    0.000000000
     10        6           0.042095297   -0.039110920    0.000000000
     11        1          -0.023784325    0.005989184    0.000000000
     12        6          -0.049586312    0.047410284    0.000000000
     13        1           0.013299558    0.004636189    0.000000000
     14        6           0.050106128   -0.034818197    0.000000000
     15        1          -0.015307855   -0.000392311    0.000000000
     16        6          -0.027584692   -0.019108606    0.000000000
     17        1           0.001027503    0.014865987    0.000000000
     18        1           0.014402798   -0.000662417    0.000000000
 -------------------------------------------------------------------
 Cartesian Forces:  Max     0.055674155 RMS     0.021895963

 GradGradGradGradGradGradGradGradGradGradGradGradGradGradGradGradGradGrad
 Berny optimization.
 Internal  Forces:  Max     0.043823300 RMS     0.013001310
 Search for a local minimum.
 Step number   1 out of a maximum of   79
 All quantities printed in internal units (Hartrees-Bohrs-Radians)
 Mixed Optimization -- RFO/linear search
 Second derivative matrix not updated -- first step.
 ITU=  0
     Eigenvalues ---    0.00310   0.00310   0.00499   0.01500   0.01500
     Eigenvalues ---    0.01500   0.01500   0.01605   0.01605   0.02683
     Eigenvalues ---    0.02683   0.02683   0.02683   0.02683   0.02683
     Eigenvalues ---    0.16000   0.16000   0.16000   0.16000   0.16000
     Eigenvalues ---    0.16000   0.16000   0.16000   0.16000   0.16000
     Eigenvalues ---    0.22000   0.22000   0.22000   0.22000   0.22000
     Eigenvalues ---    0.22000   0.29014   0.29014   0.30350   0.37600
     Eigenvalues ---    0.37600   0.37600   0.37600   0.37600   0.37600
     Eigenvalues ---    0.37719   0.37719   0.39316   0.39316   0.53947
     Eigenvalues ---    0.53947   0.53947   0.53947
 RFO step:  Lambda=-3.88781021D-02 EMin= 3.09906391D-03
 Linear search not attempted -- first point.
 Maximum step size (   0.300) exceeded in Quadratic search.
    -- Step size scaled by   0.814
 Iteration  1 RMS(Cart)=  0.12680093 RMS(Int)=  0.00367054
 Iteration  2 RMS(Cart)=  0.00557736 RMS(Int)=  0.00000483
 Iteration  3 RMS(Cart)=  0.00001317 RMS(Int)=  0.00000000
 Iteration  4 RMS(Cart)=  0.00000000 RMS(Int)=  0.00000000
 ClnCor:  largest displacement from symmetrization is 2.59D-10 for atom    16.
 Variable       Old X    -DE/DX   Delta X   Delta X   Delta X     New X
                                 (Linear)    (Quad)   (Total)
    R1        2.01475   0.01399   0.00000   0.02735   0.02735   2.04210
    R2        2.01652   0.01066   0.00000   0.02090   0.02090   2.03742
    R3        2.56079  -0.01165   0.00000  -0.01639  -0.01639   2.54441
    R4        2.01652   0.01413   0.00000   0.02771   0.02771   2.04423
    R5        2.89974  -0.02525   0.00000  -0.06243  -0.06243   2.83731
    R6        2.01652   0.01102   0.00000   0.02162   0.02162   2.03814
    R7        2.56079  -0.00221   0.00000  -0.00310  -0.00310   2.55769
    R8        1.99194   0.02130   0.00000   0.04010   0.04010   2.03204
    R9        2.87270  -0.02169   0.00000  -0.05155  -0.05155   2.82115
   R10        1.99194   0.02447   0.00000   0.04608   0.04608   2.03802
   R11        2.56079  -0.00222   0.00000  -0.00312  -0.00312   2.55767
   R12        2.01652   0.01119   0.00000   0.02194   0.02194   2.03846
   R13        2.89974  -0.04382   0.00000  -0.10837  -0.10837   2.79137
   R14        2.01652   0.01442   0.00000   0.02827   0.02827   2.04479
   R15        2.56079  -0.01233   0.00000  -0.01734  -0.01734   2.54345
   R16        2.01475   0.01436   0.00000   0.02809   0.02809   2.04284
   R17        2.01652   0.01389   0.00000   0.02724   0.02724   2.04376
    A1        2.08882  -0.00749   0.00000  -0.03062  -0.03062   2.05820
    A2        2.09939  -0.00058   0.00000  -0.00237  -0.00237   2.09701
    A3        2.09498   0.00807   0.00000   0.03300   0.03300   2.12797
    A4        2.09498  -0.01275   0.00000  -0.03689  -0.03689   2.05809
    A5        2.09939   0.03222   0.00000   0.10125   0.10125   2.20063
    A6        2.08882  -0.01946   0.00000  -0.06436  -0.06436   2.02447
    A7        2.08882  -0.02026   0.00000  -0.06978  -0.06978   2.01904
    A8        2.09939   0.02761   0.00000   0.08678   0.08678   2.18617
    A9        2.09498  -0.00736   0.00000  -0.01700  -0.01700   2.07798
   A10        2.09888  -0.00807   0.00000  -0.02039  -0.02039   2.07848
   A11        2.10813   0.02666   0.00000   0.08379   0.08379   2.19192
   A12        2.07618  -0.01859   0.00000  -0.06340  -0.06340   2.01278
   A13        2.07618  -0.01671   0.00000  -0.05407  -0.05407   2.02210
   A14        2.10813   0.03015   0.00000   0.09476   0.09476   2.20290
   A15        2.09888  -0.01344   0.00000  -0.04069  -0.04069   2.05819
   A16        2.09498   0.00494   0.00000   0.02371   0.02371   2.11868
   A17        2.09939   0.00738   0.00000   0.02319   0.02319   2.12257
   A18        2.08882  -0.01232   0.00000  -0.04689  -0.04689   2.04193
   A19        2.08882  -0.01064   0.00000  -0.03837  -0.03837   2.05045
   A20        2.09939   0.01090   0.00000   0.03424   0.03424   2.13363
   A21        2.09498  -0.00025   0.00000   0.00413   0.00413   2.09911
   A22        2.09939   0.00273   0.00000   0.01117   0.01117   2.11056
   A23        2.09498   0.00254   0.00000   0.01037   0.01037   2.10535
   A24        2.08882  -0.00527   0.00000  -0.02154  -0.02154   2.06728
    D1        0.00000   0.00000   0.00000   0.00000   0.00000   0.00000
    D2        3.14159   0.00000   0.00000   0.00000   0.00000   3.14159
    D3        3.14159   0.00000   0.00000   0.00000   0.00000   3.14159
    D4        0.00000   0.00000   0.00000   0.00000   0.00000   0.00000
    D5        3.14159   0.00000   0.00000   0.00000   0.00000   3.14159
    D6        0.00000   0.00000   0.00000   0.00000   0.00000   0.00000
    D7        0.00000   0.00000   0.00000   0.00000   0.00000   0.00000
    D8        3.14159   0.00000   0.00000   0.00000   0.00000   3.14159
    D9        0.00000   0.00000   0.00000   0.00000   0.00000   0.00000
   D10        3.14159   0.00000   0.00000   0.00000   0.00000   3.14159
   D11        3.14159   0.00000   0.00000   0.00000   0.00000   3.14159
   D12        0.00000   0.00000   0.00000   0.00000   0.00000   0.00000
   D13        3.14159   0.00000   0.00000   0.00000   0.00000   3.14159
   D14        0.00000   0.00000   0.00000   0.00000   0.00000   0.00000
   D15        0.00000   0.00000   0.00000   0.00000   0.00000   0.00000
   D16        3.14159   0.00000   0.00000   0.00000   0.00000   3.14159
   D17        0.00000   0.00000   0.00000   0.00000   0.00000   0.00000
   D18        3.14159   0.00000   0.00000   0.00000   0.00000   3.14159
   D19        3.14159   0.00000   0.00000   0.00000   0.00000   3.14159
   D20        0.00000   0.00000   0.00000   0.00000   0.00000   0.00000
   D21        0.00000   0.00000   0.00000   0.00000   0.00000   0.00000
   D22        3.14159   0.00000   0.00000   0.00000   0.00000   3.14159
   D23        3.14159   0.00000   0.00000   0.00000   0.00000   3.14159
   D24        0.00000   0.00000   0.00000   0.00000   0.00000   0.00000
   D25        3.14159   0.00000   0.00000   0.00000   0.00000   3.14159
   D26        0.00000   0.00000   0.00000   0.00000   0.00000   0.00000
   D27        0.00000   0.00000   0.00000   0.00000   0.00000   0.00000
   D28        3.14159   0.00000   0.00000   0.00000   0.00000   3.14159
         Item               Value     Threshold  Converged?
 Maximum Force            0.043823     0.000450     NO 
 RMS     Force            0.013001     0.000300     NO 
 Maximum Displacement     0.425614     0.001800     NO 
 RMS     Displacement     0.126145     0.001200     NO 
 Predicted change in Energy=-2.051323D-02
 GradGradGradGradGradGradGradGradGradGradGradGradGradGradGradGradGradGrad

                          Input orientation:                          
 ---------------------------------------------------------------------
 Center     Atomic      Atomic             Coordinates (Angstroms)
 Number     Number       Type             X           Y           Z
 ---------------------------------------------------------------------
      1          6           0       -0.207791   -3.896783    0.000000
      2          1           0        0.058987   -4.943969    0.000000
      3          1           0       -1.255569   -3.642647    0.000000
      4          6           0        0.753507   -2.954014    0.000000
      5          1           0        1.784413   -3.281788    0.000000
      6          6           0        0.535326   -1.468511    0.000000
      7          1           0        1.429072   -0.864808    0.000000
      8          6           0       -0.671669   -0.856097    0.000000
      9          1           0       -1.563047   -1.457543    0.000000
     10          6           0       -0.897103    0.619670    0.000000
     11          1           0       -1.927498    0.938094    0.000000
     12          6           0        0.061578    1.575072    0.000000
     13          1           0        1.109563    1.319473    0.000000
     14          6           0       -0.277923    3.012657    0.000000
     15          1           0       -1.326943    3.277995    0.000000
     16          6           0        0.664862    3.973232    0.000000
     17          1           0        0.392194    5.019303    0.000000
     18          1           0        1.714989    3.714579    0.000000
 ---------------------------------------------------------------------
                    Distance matrix (angstroms):
                    1          2          3          4          5
     1  C    0.000000
     2  H    1.080634   0.000000
     3  H    1.078157   1.849729   0.000000
     4  C    1.346443   2.107672   2.123818   0.000000
     5  H    2.084970   2.395817   3.061325   1.081760   0.000000
     6  C    2.539434   3.507949   2.816766   1.501439   2.201861
     7  H    3.445604   4.303102   3.863118   2.195715   2.442961
     8  C    3.075866   4.152656   2.847068   2.536214   3.452002
     9  H    2.790450   3.845278   2.206632   2.757870   3.812264
    10  C    4.568752   5.645192   4.277364   3.936461   4.734121
    11  H    5.131610   6.208445   4.629760   4.726128   5.620115
    12  C    5.478481   6.519042   5.381400   4.581636   5.153373
    13  H    5.380032   6.350938   5.496952   4.288294   4.650487
    14  C    6.909796   7.963756   6.726728   6.055164   6.623690
    15  H    7.261538   8.337955   6.921010   6.570099   7.260255
    16  C    7.918248   8.937760   7.854277   6.927813   7.340893
    17  H    8.936250   9.968843   8.817285   7.981499   8.417030
    18  H    7.850472   8.815487   7.934292   6.737550   6.996712
                    6          7          8          9         10
     6  C    0.000000
     7  H    1.078535   0.000000
     8  C    1.353472   2.100759   0.000000
     9  H    2.098401   3.050263   1.075310   0.000000
    10  C    2.532263   2.759486   1.492886   2.181351   0.000000
    11  H    3.443436   3.810120   2.190030   2.423200   1.078475
    12  C    3.080234   2.796973   2.539338   3.440372   1.353463
    13  H    2.846508   2.207526   2.811742   3.854174   2.125190
    14  C    4.554365   4.236575   3.888740   4.651261   2.471795
    15  H    5.098762   4.975785   4.185702   4.741420   2.692852
    16  C    5.443285   4.898025   5.010862   5.869999   3.699475
    17  H    6.489393   5.974771   5.970941   6.765538   4.584655
    18  H    5.315641   4.588305   5.156280   6.123428   4.049875
                   11         12         13         14         15
    11  H    0.000000
    12  C    2.088579   0.000000
    13  H    3.060913   1.078705   0.000000
    14  C    2.650455   1.477129   2.189061   0.000000
    15  H    2.415741   2.197256   3.126079   1.082057   0.000000
    16  C    3.991541   2.472877   2.690761   1.345937   2.109655
    17  H    4.694384   3.460063   3.768735   2.115582   2.446955
    18  H    4.580020   2.703934   2.470440   2.112911   3.073102
                   16         17         18
    16  C    0.000000
    17  H    1.081024   0.000000
    18  H    1.081512   1.857980   0.000000
 Stoichiometry    C8H10
 Framework group  CS[SG(C8H10)]
 Deg. of freedom    33
 Full point group                 CS      NOp   2
 Largest Abelian subgroup         CS      NOp   2
 Largest concise Abelian subgroup C1      NOp   1
                         Standard orientation:                         
 ---------------------------------------------------------------------
 Center     Atomic      Atomic             Coordinates (Angstroms)
 Number     Number       Type             X           Y           Z
 ---------------------------------------------------------------------
      1          6           0        2.244340   -3.194860    0.000000
      2          1           0        3.101395   -3.853059    0.000000
      3          1           0        1.263652   -3.642826    0.000000
      4          6           0        2.417139   -1.859551    0.000000
      5          1           0        3.430089   -1.479897    0.000000
      6          6           0        1.327321   -0.826780    0.000000
      7          1           0        1.656629    0.200252    0.000000
      8          6           0        0.000000   -1.091555    0.000000
      9          1           0       -0.328842   -2.115349    0.000000
     10          6           0       -1.089501   -0.070920    0.000000
     11          1           0       -2.096268   -0.457608    0.000000
     12          6           0       -0.926569    1.272700    0.000000
     13          1           0        0.055187    1.719645    0.000000
     14          6           0       -2.082125    2.192809    0.000000
     15          1           0       -3.070715    1.752880    0.000000
     16          6           0       -1.934886    3.530669    0.000000
     17          1           0       -2.795880    4.184351    0.000000
     18          1           0       -0.949559    3.976537    0.000000
 ---------------------------------------------------------------------
 Rotational constants (GHZ):      9.8478084      0.6659712      0.6237868
 Standard basis: 6-31G(d) (6D, 7F)
 There are   108 symmetry adapted basis functions of A'  symmetry.
 There are    32 symmetry adapted basis functions of A"  symmetry.
 Integral buffers will be    131072 words long.
 Raffenetti 2 integral format.
 Two-electron integral symmetry is turned on.
   140 basis functions,   264 primitive gaussians,   140 cartesian basis functions
    29 alpha electrons       29 beta electrons
       nuclear repulsion energy       301.1506498517 Hartrees.
 NAtoms=   18 NActive=   18 NUniq=   18 SFac= 1.00D+00 NAtFMM=   60 NAOKFM=F Big=F
 One-electron integrals computed using PRISM.
 NBasis=   140 RedAO= T  NBF=   108    32
 NBsUse=   140 1.00D-06 NBFU=   108    32
 Initial guess read from the read-write file.
 B after Tr=     0.000000    0.000000    0.000000
         Rot=    1.000000    0.000000    0.000000    0.000000 Ang=   0.00 deg.
 Initial guess orbital symmetries:
       Occupied  (A') (A') (A') (A') (A') (A') (A') (A') (A') (A')
                 (A') (A') (A') (A') (A') (A') (A') (A') (A') (A')
                 (A') (A') (A') (A') (A') (A") (A") (A") (A")
       Virtual   (A") (A") (A") (A') (A") (A') (A') (A') (A') (A')
                 (A') (A') (A') (A') (A') (A') (A') (A') (A') (A')
                 (A') (A') (A') (A") (A") (A') (A') (A") (A') (A')
                 (A") (A') (A") (A') (A") (A') (A') (A") (A") (A')
                 (A') (A') (A') (A') (A') (A') (A') (A') (A') (A')
                 (A') (A') (A') (A') (A') (A') (A') (A') (A') (A')
                 (A") (A') (A") (A") (A") (A") (A') (A") (A') (A")
                 (A") (A") (A') (A') (A') (A') (A') (A') (A") (A')
                 (A') (A") (A') (A') (A') (A") (A') (A") (A') (A')
                 (A") (A") (A') (A") (A') (A') (A') (A') (A') (A')
                 (A') (A') (A') (A') (A') (A') (A') (A') (A') (A')
                 (A')
 Harris functional with IExCor=  402 diagonalized for initial guess.
 ExpMin= 1.61D-01 ExpMax= 3.05D+03 ExpMxC= 4.57D+02 IAcc=1 IRadAn=         1 AccDes= 0.00D+00
 HarFok:  IExCor=  402 AccDes= 0.00D+00 IRadAn=         1 IDoV= 1
 ScaDFX=  1.000000  1.000000  1.000000  1.000000
 FoFCou: FMM=F IPFlag=           0 FMFlag=      100000 FMFlg1=           0
         NFxFlg=           0 DoJE=T BraDBF=F KetDBF=T FulRan=T
         Omega=  0.000000  0.000000  1.000000  0.000000  0.000000 ICntrl=     500 IOpCl=  0
         NMat0=    1 NMatS0=    1 NMatT0=    0 NMatD0=    1 NMtDS0=    0 NMtDT0=    0
         I1Cent=           4 NGrid=           0.
 Petite list used in FoFCou.
 Requested convergence on RMS density matrix=1.00D-08 within 128 cycles.
 Requested convergence on MAX density matrix=1.00D-06.
 Requested convergence on             energy=1.00D-06.
 No special actions if energy rises.
 Integral accuracy reduced to 1.0D-05 until final iterations.
 Initial convergence to 1.0D-05 achieved.  Increase integral accuracy.
 SCF Done:  E(RB3LYP) =  -310.790456271     A.U. after   15 cycles
             Convg  =    0.5730D-08             -V/T =  2.0104
 Calling FoFJK, ICntrl=      2127 FMM=F ISym2X=1 I1Cent= 0 IOpClX= 0 NMat=1 NMatS=1 NMatT=0.
 ***** Axes restored to original set *****
 -------------------------------------------------------------------
 Center     Atomic                   Forces (Hartrees/Bohr)
 Number     Number              X              Y              Z
 -------------------------------------------------------------------
      1        6           0.011273189    0.006540781    0.000000000
      2        1          -0.001220201   -0.003815127    0.000000000
      3        1          -0.005933645   -0.000855297    0.000000000
      4        6          -0.013288751    0.018412928    0.000000000
      5        1           0.005134626    0.000613098    0.000000000
      6        6          -0.006028359   -0.024915487    0.000000000
      7        1           0.005999568    0.002587979    0.000000000
      8        6           0.008066611    0.026108475    0.000000000
      9        1          -0.007646666   -0.004407610    0.000000000
     10        6           0.014673646   -0.024770761    0.000000000
     11        1          -0.007073534    0.001217575    0.000000000
     12        6          -0.020676690    0.017840196    0.000000000
     13        1           0.006266069   -0.001084496    0.000000000
     14        6           0.018947918   -0.014802244    0.000000000
     15        1          -0.004766153    0.000152763    0.000000000
     16        6          -0.009590960   -0.004019111    0.000000000
     17        1           0.001678744    0.003785258    0.000000000
     18        1           0.004184590    0.001411079    0.000000000
 -------------------------------------------------------------------
 Cartesian Forces:  Max     0.026108475 RMS     0.009330330

 GradGradGradGradGradGradGradGradGradGradGradGradGradGradGradGradGradGrad
 Berny optimization.
 Using GEDIIS/GDIIS optimizer.
 Internal  Forces:  Max     0.021256898 RMS     0.004975187
 Search for a local minimum.
 Step number   2 out of a maximum of   79
 All quantities printed in internal units (Hartrees-Bohrs-Radians)
 Mixed Optimization -- RFO/linear search
 Update second derivatives using D2CorX and points    1    2
 DE= -1.97D-02 DEPred=-2.05D-02 R= 9.60D-01
 SS=  1.41D+00  RLast= 3.00D-01 DXNew= 5.0454D-01 9.0000D-01
 Trust test= 9.60D-01 RLast= 3.00D-01 DXMaxT set to 5.05D-01
 ITU=  1  0
 Use linear search instead of GDIIS.
     Eigenvalues ---    0.00310   0.00310   0.00499   0.01516   0.01528
     Eigenvalues ---    0.01532   0.01547   0.01611   0.01628   0.02683
     Eigenvalues ---    0.02683   0.02683   0.02683   0.02683   0.02683
     Eigenvalues ---    0.15629   0.16000   0.16000   0.16000   0.16000
     Eigenvalues ---    0.16000   0.16000   0.16000   0.16000   0.16271
     Eigenvalues ---    0.20120   0.22000   0.22000   0.22000   0.22000
     Eigenvalues ---    0.23723   0.27231   0.29626   0.32605   0.37075
     Eigenvalues ---    0.37600   0.37600   0.37600   0.37600   0.37650
     Eigenvalues ---    0.37719   0.38340   0.39178   0.39813   0.53812
     Eigenvalues ---    0.53947   0.53947   0.54196
 RFO step:  Lambda=-5.03042285D-03 EMin= 3.09906391D-03
 Quartic linear search produced a step of  0.49176.
 Iteration  1 RMS(Cart)=  0.03756156 RMS(Int)=  0.00055052
 Iteration  2 RMS(Cart)=  0.00092964 RMS(Int)=  0.00000016
 Iteration  3 RMS(Cart)=  0.00000021 RMS(Int)=  0.00000000
 ClnCor:  largest displacement from symmetrization is 7.13D-11 for atom    11.
 Variable       Old X    -DE/DX   Delta X   Delta X   Delta X     New X
                                 (Linear)    (Quad)   (Total)
    R1        2.04210   0.00340   0.01345   0.00135   0.01480   2.05691
    R2        2.03742   0.00556   0.01028   0.01263   0.02291   2.06033
    R3        2.54441  -0.00427  -0.00806  -0.00450  -0.01255   2.53185
    R4        2.04423   0.00471   0.01363   0.00638   0.02001   2.06424
    R5        2.83731  -0.02126  -0.03070  -0.08036  -0.11106   2.72625
    R6        2.03814   0.00642   0.01063   0.01572   0.02635   2.06448
    R7        2.55769  -0.00294  -0.00153  -0.00667  -0.00820   2.54950
    R8        2.03204   0.00880   0.01972   0.01548   0.03520   2.06724
    R9        2.82115  -0.02058  -0.02535  -0.07710  -0.10245   2.71870
   R10        2.03802   0.00712   0.02266   0.00657   0.02923   2.06726
   R11        2.55767  -0.00052  -0.00153  -0.00005  -0.00158   2.55609
   R12        2.03846   0.00634   0.01079   0.01525   0.02604   2.06450
   R13        2.79137  -0.01550  -0.05329  -0.03151  -0.08480   2.70657
   R14        2.04479   0.00466   0.01390   0.00595   0.01985   2.06464
   R15        2.54345  -0.00179  -0.00853   0.00271  -0.00582   2.53764
   R16        2.04284   0.00324   0.01381   0.00043   0.01424   2.05708
   R17        2.04376   0.00372   0.01340   0.00269   0.01608   2.05984
    A1        2.05820  -0.00295  -0.01506  -0.01383  -0.02889   2.02931
    A2        2.09701   0.00136  -0.00117   0.01328   0.01212   2.10913
    A3        2.12797   0.00159   0.01623   0.00055   0.01678   2.14475
    A4        2.05809   0.00005  -0.01814   0.02146   0.00331   2.06140
    A5        2.20063   0.00428   0.04979  -0.01481   0.03498   2.23561
    A6        2.02447  -0.00433  -0.03165  -0.00665  -0.03829   1.98617
    A7        2.01904  -0.00283  -0.03432   0.00782  -0.02650   1.99254
    A8        2.18617   0.00320   0.04268  -0.01583   0.02685   2.21301
    A9        2.07798  -0.00036  -0.00836   0.00801  -0.00035   2.07763
   A10        2.07848  -0.00103  -0.01003   0.00357  -0.00645   2.07203
   A11        2.19192   0.00331   0.04120  -0.01382   0.02739   2.21931
   A12        2.01278  -0.00228  -0.03118   0.01024  -0.02093   1.99185
   A13        2.02210  -0.00295  -0.02659   0.00117  -0.02542   1.99668
   A14        2.20290   0.00401   0.04660  -0.01385   0.03275   2.23565
   A15        2.05819  -0.00106  -0.02001   0.01268  -0.00733   2.05085
   A16        2.11868  -0.00241   0.01166  -0.02476  -0.01310   2.10558
   A17        2.12257   0.00571   0.01140   0.02792   0.03933   2.16190
   A18        2.04193  -0.00330  -0.02306  -0.00316  -0.02622   2.01571
   A19        2.05045  -0.00424  -0.01887  -0.01441  -0.03328   2.01717
   A20        2.13363   0.00639   0.01684   0.02768   0.04452   2.17815
   A21        2.09911  -0.00215   0.00203  -0.01328  -0.01125   2.08786
   A22        2.11056   0.00188   0.00549   0.01230   0.01779   2.12835
   A23        2.10535   0.00148   0.00510   0.00905   0.01415   2.11950
   A24        2.06728  -0.00337  -0.01059  -0.02135  -0.03195   2.03533
    D1        0.00000   0.00000   0.00000   0.00000   0.00000   0.00000
    D2        3.14159   0.00000   0.00000   0.00000   0.00000   3.14159
    D3        3.14159   0.00000   0.00000   0.00000   0.00000   3.14159
    D4        0.00000   0.00000   0.00000   0.00000   0.00000   0.00000
    D5        3.14159   0.00000   0.00000   0.00000   0.00000   3.14159
    D6        0.00000   0.00000   0.00000   0.00000   0.00000   0.00000
    D7        0.00000   0.00000   0.00000   0.00000   0.00000   0.00000
    D8        3.14159   0.00000   0.00000   0.00000   0.00000   3.14159
    D9        0.00000   0.00000   0.00000   0.00000   0.00000   0.00000
   D10        3.14159   0.00000   0.00000   0.00000   0.00000   3.14159
   D11        3.14159   0.00000   0.00000   0.00000   0.00000   3.14159
   D12        0.00000   0.00000   0.00000   0.00000   0.00000   0.00000
   D13        3.14159   0.00000   0.00000   0.00000   0.00000   3.14159
   D14        0.00000   0.00000   0.00000   0.00000   0.00000   0.00000
   D15        0.00000   0.00000   0.00000   0.00000   0.00000   0.00000
   D16        3.14159   0.00000   0.00000   0.00000   0.00000   3.14159
   D17        0.00000   0.00000   0.00000   0.00000   0.00000   0.00000
   D18        3.14159   0.00000   0.00000   0.00000   0.00000   3.14159
   D19        3.14159   0.00000   0.00000   0.00000   0.00000   3.14159
   D20        0.00000   0.00000   0.00000   0.00000   0.00000   0.00000
   D21        0.00000   0.00000   0.00000   0.00000   0.00000   0.00000
   D22        3.14159   0.00000   0.00000   0.00000   0.00000   3.14159
   D23        3.14159   0.00000   0.00000   0.00000   0.00000   3.14159
   D24        0.00000   0.00000   0.00000   0.00000   0.00000   0.00000
   D25        3.14159   0.00000   0.00000   0.00000   0.00000   3.14159
   D26        0.00000   0.00000   0.00000   0.00000   0.00000   0.00000
   D27        0.00000   0.00000   0.00000   0.00000   0.00000   0.00000
   D28        3.14159   0.00000   0.00000   0.00000   0.00000   3.14159
         Item               Value     Threshold  Converged?
 Maximum Force            0.021257     0.000450     NO 
 RMS     Force            0.004975     0.000300     NO 
 Maximum Displacement     0.140139     0.001800     NO 
 RMS     Displacement     0.037959     0.001200     NO 
 Predicted change in Energy=-3.921494D-03
 GradGradGradGradGradGradGradGradGradGradGradGradGradGradGradGradGradGrad

                          Input orientation:                          
 ---------------------------------------------------------------------
 Center     Atomic      Atomic             Coordinates (Angstroms)
 Number     Number       Type             X           Y           Z
 ---------------------------------------------------------------------
      1          6           0       -0.210657   -3.874291    0.000000
      2          1           0        0.074964   -4.924617    0.000000
      3          1           0       -1.280696   -3.665176    0.000000
      4          6           0        0.719085   -2.909593    0.000000
      5          1           0        1.769988   -3.207630    0.000000
      6          6           0        0.519152   -1.480844    0.000000
      7          1           0        1.444307   -0.899814    0.000000
      8          6           0       -0.662760   -0.830266    0.000000
      9          1           0       -1.585878   -1.417248    0.000000
     10          6           0       -0.871102    0.593240    0.000000
     11          1           0       -1.922275    0.896145    0.000000
     12          6           0        0.061355    1.573097    0.000000
     13          1           0        1.126100    1.328468    0.000000
     14          6           0       -0.249918    2.971120    0.000000
     15          1           0       -1.314378    3.217323    0.000000
     16          6           0        0.659873    3.958821    0.000000
     17          1           0        0.370693    5.008268    0.000000
     18          1           0        1.729098    3.746910    0.000000
 ---------------------------------------------------------------------
                    Distance matrix (angstroms):
                    1          2          3          4          5
     1  C    0.000000
     2  H    1.088468   0.000000
     3  H    1.090282   1.850407   0.000000
     4  C    1.339800   2.115470   2.137763   0.000000
     5  H    2.089831   2.412707   3.084805   1.092348   0.000000
     6  C    2.502242   3.472302   2.830329   1.442671   2.132225
     7  H    3.403883   4.251369   3.882379   2.136623   2.330683
     8  C    3.077416   4.160282   2.901476   2.496617   3.401488
     9  H    2.815723   3.880726   2.268549   2.745897   3.803591
    10  C    4.516085   5.598374   4.278069   3.846887   4.628388
    11  H    5.068205   6.153880   4.606221   4.632540   5.520306
    12  C    5.454176   6.497729   5.407458   4.530687   5.076887
    13  H    5.371744   6.340817   5.543388   4.257561   4.581570
    14  C    6.845524   7.902418   6.715871   5.960013   6.500536
    15  H    7.176991   8.259629   6.882582   6.455546   7.126944
    16  C    7.881337   8.902674   7.867092   6.868670   7.251923
    17  H    8.901563   9.937286   8.829253   7.925522   8.334207
    18  H    7.864183   8.827885   7.999868   6.732694   6.954660
                    6          7          8          9         10
     6  C    0.000000
     7  H    1.092477   0.000000
     8  C    1.349135   2.108214   0.000000
     9  H    2.105991   3.074046   1.093936   0.000000
    10  C    2.496924   2.755055   1.438671   2.133768   0.000000
    11  H    3.407439   3.815671   2.137025   2.337724   1.093945
    12  C    3.088063   2.833345   2.510079   3.414021   1.352626
    13  H    2.874130   2.250889   2.803596   3.859247   2.128233
    14  C    4.517903   4.225462   3.823738   4.587217   2.457678
    15  H    5.043273   4.955922   4.099705   4.642517   2.661260
    16  C    5.441485   4.921552   4.968371   5.826278   3.697434
    17  H    6.490809   6.004838   5.929292   6.716802   4.586341
    18  H    5.365947   4.655444   5.164448   6.136579   4.087380
                   11         12         13         14         15
    11  H    0.000000
    12  C    2.095961   0.000000
    13  H    3.078878   1.092485   0.000000
    14  C    2.665013   1.432257   2.142832   0.000000
    15  H    2.399459   2.143856   3.086050   1.092561   0.000000
    16  C    4.005929   2.459655   2.671353   1.342860   2.108906
    17  H    4.708211   3.449071   3.756536   2.129584   2.459054
    18  H    4.632428   2.739860   2.492482   2.125642   3.089208
                   16         17         18
    16  C    0.000000
    17  H    1.088560   0.000000
    18  H    1.090023   1.853722   0.000000
 Stoichiometry    C8H10
 Framework group  CS[SG(C8H10)]
 Deg. of freedom    33
 Full point group                 CS      NOp   2
 Largest Abelian subgroup         CS      NOp   2
 Largest concise Abelian subgroup C1      NOp   1
                         Standard orientation:                         
 ---------------------------------------------------------------------
 Center     Atomic      Atomic             Coordinates (Angstroms)
 Number     Number       Type             X           Y           Z
 ---------------------------------------------------------------------
      1          6           0        3.330208    1.994437    0.000000
      2          1           0        4.040106    2.819547    0.000000
      3          1           0        3.756594    0.990988    0.000000
      4          6           0        2.010212    2.223945    0.000000
      5          1           0        1.668199    3.261370    0.000000
      6          6           0        0.938865    1.257759    0.000000
      7          1           0       -0.060782    1.698454    0.000000
      8          6           0        1.062292   -0.085718    0.000000
      9          1           0        2.065729   -0.521391    0.000000
     10          6           0        0.000000   -1.055931    0.000000
     11          1           0        0.338132   -2.096307    0.000000
     12          6           0       -1.334073   -0.832668    0.000000
     13          1           0       -1.728078    0.186295    0.000000
     14          6           0       -2.317581   -1.873854    0.000000
     15          1           0       -1.925040   -2.893463    0.000000
     16          6           0       -3.645450   -1.673761    0.000000
     17          1           0       -4.352627   -2.501326    0.000000
     18          1           0       -4.069065   -0.669420    0.000000
 ---------------------------------------------------------------------
 Rotational constants (GHZ):     10.1678111      0.6757626      0.6336496
 Standard basis: 6-31G(d) (6D, 7F)
 There are   108 symmetry adapted basis functions of A'  symmetry.
 There are    32 symmetry adapted basis functions of A"  symmetry.
 Integral buffers will be    131072 words long.
 Raffenetti 2 integral format.
 Two-electron integral symmetry is turned on.
   140 basis functions,   264 primitive gaussians,   140 cartesian basis functions
    29 alpha electrons       29 beta electrons
       nuclear repulsion energy       303.6599530804 Hartrees.
 NAtoms=   18 NActive=   18 NUniq=   18 SFac= 1.00D+00 NAtFMM=   60 NAOKFM=F Big=F
 One-electron integrals computed using PRISM.
 NBasis=   140 RedAO= T  NBF=   108    32
 NBsUse=   140 1.00D-06 NBFU=   108    32
 Initial guess read from the read-write file.
 B after Tr=     0.000000    0.000000    0.000000
         Rot=    1.000000    0.000000    0.000000    0.000000 Ang=   0.00 deg.
 Initial guess orbital symmetries:
       Occupied  (A') (A') (A') (A') (A') (A') (A') (A') (A') (A')
                 (A') (A') (A') (A') (A') (A') (A') (A') (A') (A')
                 (A') (A') (A') (A') (A') (A") (A") (A") (A")
       Virtual   (A") (A") (A") (A') (A') (A") (A') (A') (A') (A')
                 (A') (A') (A') (A') (A') (A') (A') (A') (A') (A')
                 (A') (A') (A') (A") (A") (A') (A') (A") (A') (A')
                 (A") (A') (A") (A') (A") (A') (A') (A") (A") (A')
                 (A') (A') (A') (A') (A') (A') (A') (A') (A') (A')
                 (A') (A') (A') (A') (A') (A') (A') (A') (A') (A')
                 (A") (A") (A') (A") (A") (A') (A") (A') (A") (A")
                 (A") (A") (A') (A') (A') (A') (A') (A') (A") (A')
                 (A') (A") (A') (A') (A') (A") (A') (A") (A') (A')
                 (A") (A") (A') (A') (A') (A") (A') (A') (A') (A')
                 (A') (A') (A') (A') (A') (A') (A') (A') (A') (A')
                 (A')
 Harris functional with IExCor=  402 diagonalized for initial guess.
 ExpMin= 1.61D-01 ExpMax= 3.05D+03 ExpMxC= 4.57D+02 IAcc=1 IRadAn=         1 AccDes= 0.00D+00
 HarFok:  IExCor=  402 AccDes= 0.00D+00 IRadAn=         1 IDoV= 1
 ScaDFX=  1.000000  1.000000  1.000000  1.000000
 FoFCou: FMM=F IPFlag=           0 FMFlag=      100000 FMFlg1=           0
         NFxFlg=           0 DoJE=T BraDBF=F KetDBF=T FulRan=T
         Omega=  0.000000  0.000000  1.000000  0.000000  0.000000 ICntrl=     500 IOpCl=  0
         NMat0=    1 NMatS0=    1 NMatT0=    0 NMatD0=    1 NMtDS0=    0 NMtDT0=    0
         I1Cent=           4 NGrid=           0.
 Petite list used in FoFCou.
 Requested convergence on RMS density matrix=1.00D-08 within 128 cycles.
 Requested convergence on MAX density matrix=1.00D-06.
 Requested convergence on             energy=1.00D-06.
 No special actions if energy rises.
 Integral accuracy reduced to 1.0D-05 until final iterations.
 Initial convergence to 1.0D-05 achieved.  Increase integral accuracy.
 SCF Done:  E(RB3LYP) =  -310.793083269     A.U. after   15 cycles
             Convg  =    0.3719D-08             -V/T =  2.0099
 Calling FoFJK, ICntrl=      2127 FMM=F ISym2X=1 I1Cent= 0 IOpClX= 0 NMat=1 NMatS=1 NMatT=0.
 ***** Axes restored to original set *****
 -------------------------------------------------------------------
 Center     Atomic                   Forces (Hartrees/Bohr)
 Number     Number              X              Y              Z
 -------------------------------------------------------------------
      1        6          -0.004141700   -0.006441237    0.000000000
      2        1          -0.000892905    0.001743188    0.000000000
      3        1           0.002349173   -0.000301559    0.000000000
      4        6           0.006905455   -0.006750497    0.000000000
      5        1          -0.002036951   -0.001733424    0.000000000
      6        6           0.006036066    0.006741566    0.000000000
      7        1          -0.002991076    0.000703908    0.000000000
      8        6          -0.006814030   -0.004093553    0.000000000
      9        1           0.003615325    0.000036652    0.000000000
     10        6          -0.006612377    0.004722390    0.000000000
     11        1           0.002651592    0.001240564    0.000000000
     12        6           0.008015317   -0.004644003    0.000000000
     13        1          -0.001813938   -0.001760521    0.000000000
     14        6          -0.006795190    0.006998387    0.000000000
     15        1           0.001246722    0.001612149    0.000000000
     16        6           0.002316993    0.003683649    0.000000000
     17        1           0.000444037   -0.002080106    0.000000000
     18        1          -0.001482515    0.000322448    0.000000000
 -------------------------------------------------------------------
 Cartesian Forces:  Max     0.008015317 RMS     0.003410081

 GradGradGradGradGradGradGradGradGradGradGradGradGradGradGradGradGradGrad
 Berny optimization.
 Using GEDIIS/GDIIS optimizer.
 Internal  Forces:  Max     0.013657517 RMS     0.003009887
 Search for a local minimum.
 Step number   3 out of a maximum of   79
 All quantities printed in internal units (Hartrees-Bohrs-Radians)
 Mixed Optimization -- RFO/linear search
 Update second derivatives using D2CorX and points    1    2    3
 DE= -2.63D-03 DEPred=-3.92D-03 R= 6.70D-01
 SS=  1.41D+00  RLast= 2.26D-01 DXNew= 8.4853D-01 6.7946D-01
 Trust test= 6.70D-01 RLast= 2.26D-01 DXMaxT set to 6.79D-01
 ITU=  1  1  0
 Use linear search instead of GDIIS.
     Eigenvalues ---    0.00310   0.00310   0.00499   0.01540   0.01540
     Eigenvalues ---    0.01547   0.01553   0.01620   0.01634   0.02683
     Eigenvalues ---    0.02683   0.02683   0.02683   0.02683   0.02683
     Eigenvalues ---    0.15130   0.16000   0.16000   0.16000   0.16000
     Eigenvalues ---    0.16000   0.16000   0.16000   0.16091   0.16492
     Eigenvalues ---    0.19807   0.22000   0.22000   0.22000   0.22010
     Eigenvalues ---    0.24068   0.29422   0.30566   0.34978   0.36784
     Eigenvalues ---    0.37600   0.37600   0.37600   0.37621   0.37718
     Eigenvalues ---    0.37755   0.38209   0.39046   0.39499   0.53902
     Eigenvalues ---    0.53947   0.54115   0.55889
 RFO step:  Lambda=-3.60215760D-04 EMin= 3.09906391D-03
 Quartic linear search produced a step of -0.30005.
 Iteration  1 RMS(Cart)=  0.02182962 RMS(Int)=  0.00003547
 Iteration  2 RMS(Cart)=  0.00003673 RMS(Int)=  0.00000000
 Iteration  3 RMS(Cart)=  0.00000000 RMS(Int)=  0.00000000
 ClnCor:  largest displacement from symmetrization is 3.19D-12 for atom    11.
 Variable       Old X    -DE/DX   Delta X   Delta X   Delta X     New X
                                 (Linear)    (Quad)   (Total)
    R1        2.05691  -0.00192  -0.00444  -0.00007  -0.00452   2.05239
    R2        2.06033  -0.00237  -0.00687   0.00135  -0.00553   2.05481
    R3        2.53185   0.00546   0.00377   0.00410   0.00787   2.53973
    R4        2.06424  -0.00148  -0.00600   0.00212  -0.00389   2.06035
    R5        2.72625   0.01366   0.03332   0.00396   0.03729   2.76354
    R6        2.06448  -0.00216  -0.00791   0.00265  -0.00525   2.05923
    R7        2.54950   0.00751   0.00246   0.00774   0.01019   2.55969
    R8        2.06724  -0.00307  -0.01056   0.00323  -0.00733   2.05991
    R9        2.71870   0.01029   0.03074  -0.00309   0.02765   2.74634
   R10        2.06726  -0.00220  -0.00877   0.00310  -0.00567   2.06158
   R11        2.55609   0.00431   0.00047   0.00528   0.00576   2.56185
   R12        2.06450  -0.00138  -0.00781   0.00404  -0.00378   2.06072
   R13        2.70657   0.01122   0.02544   0.00605   0.03149   2.73806
   R14        2.06464  -0.00085  -0.00596   0.00326  -0.00270   2.06195
   R15        2.53764   0.00228   0.00174   0.00172   0.00347   2.54110
   R16        2.05708  -0.00212  -0.00427  -0.00062  -0.00490   2.05218
   R17        2.05984  -0.00152  -0.00483   0.00100  -0.00382   2.05602
    A1        2.02931  -0.00017   0.00867  -0.00853   0.00014   2.02944
    A2        2.10913   0.00065  -0.00364   0.00650   0.00287   2.11200
    A3        2.14475  -0.00049  -0.00503   0.00203  -0.00300   2.14174
    A4        2.06140  -0.00245  -0.00099  -0.00874  -0.00974   2.05166
    A5        2.23561   0.00032  -0.01050   0.00886  -0.00163   2.23398
    A6        1.98617   0.00213   0.01149  -0.00012   0.01137   1.99755
    A7        1.99254   0.00183   0.00795   0.00243   0.01038   2.00292
    A8        2.21301   0.00086  -0.00806   0.00860   0.00055   2.21356
    A9        2.07763  -0.00269   0.00010  -0.01103  -0.01092   2.06671
   A10        2.07203  -0.00247   0.00194  -0.01171  -0.00977   2.06226
   A11        2.21931   0.00100  -0.00822   0.00925   0.00103   2.22034
   A12        1.99185   0.00148   0.00628   0.00246   0.00874   2.00058
   A13        1.99668   0.00200   0.00763   0.00264   0.01027   2.00695
   A14        2.23565  -0.00002  -0.00983   0.00726  -0.00256   2.23309
   A15        2.05085  -0.00198   0.00220  -0.00990  -0.00770   2.04315
   A16        2.10558  -0.00206   0.00393  -0.01343  -0.00950   2.09608
   A17        2.16190  -0.00027  -0.01180   0.00977  -0.00203   2.15986
   A18        2.01571   0.00232   0.00787   0.00366   0.01153   2.02724
   A19        2.01717   0.00212   0.00999   0.00042   0.01041   2.02758
   A20        2.17815  -0.00042  -0.01336   0.01051  -0.00285   2.17530
   A21        2.08786  -0.00170   0.00337  -0.01093  -0.00756   2.08030
   A22        2.12835  -0.00020  -0.00534   0.00411  -0.00123   2.12712
   A23        2.11950   0.00013  -0.00425   0.00449   0.00024   2.11974
   A24        2.03533   0.00007   0.00959  -0.00859   0.00099   2.03633
    D1        0.00000   0.00000   0.00000   0.00000   0.00000   0.00000
    D2        3.14159   0.00000   0.00000   0.00000   0.00000   3.14159
    D3        3.14159   0.00000   0.00000   0.00000   0.00000   3.14159
    D4        0.00000   0.00000   0.00000   0.00000   0.00000   0.00000
    D5        3.14159   0.00000   0.00000   0.00000   0.00000   3.14159
    D6        0.00000   0.00000   0.00000   0.00000   0.00000   0.00000
    D7        0.00000   0.00000   0.00000   0.00000   0.00000   0.00000
    D8        3.14159   0.00000   0.00000   0.00000   0.00000   3.14159
    D9        0.00000   0.00000   0.00000   0.00000   0.00000   0.00000
   D10        3.14159   0.00000   0.00000   0.00000   0.00000   3.14159
   D11        3.14159   0.00000   0.00000   0.00000   0.00000   3.14159
   D12        0.00000   0.00000   0.00000   0.00000   0.00000   0.00000
   D13        3.14159   0.00000   0.00000   0.00000   0.00000   3.14159
   D14        0.00000   0.00000   0.00000   0.00000   0.00000   0.00000
   D15        0.00000   0.00000   0.00000   0.00000   0.00000   0.00000
   D16        3.14159   0.00000   0.00000   0.00000   0.00000   3.14159
   D17        0.00000   0.00000   0.00000   0.00000   0.00000   0.00000
   D18        3.14159   0.00000   0.00000   0.00000   0.00000   3.14159
   D19        3.14159   0.00000   0.00000   0.00000   0.00000   3.14159
   D20        0.00000   0.00000   0.00000   0.00000   0.00000   0.00000
   D21        0.00000   0.00000   0.00000   0.00000   0.00000   0.00000
   D22        3.14159   0.00000   0.00000   0.00000   0.00000   3.14159
   D23        3.14159   0.00000   0.00000   0.00000   0.00000   3.14159
   D24        0.00000   0.00000   0.00000   0.00000   0.00000   0.00000
   D25        3.14159   0.00000   0.00000   0.00000   0.00000   3.14159
   D26        0.00000   0.00000   0.00000   0.00000   0.00000   0.00000
   D27        0.00000   0.00000   0.00000   0.00000   0.00000   0.00000
   D28        3.14159   0.00000   0.00000   0.00000   0.00000   3.14159
         Item               Value     Threshold  Converged?
 Maximum Force            0.013658     0.000450     NO 
 RMS     Force            0.003010     0.000300     NO 
 Maximum Displacement     0.072615     0.001800     NO 
 RMS     Displacement     0.021818     0.001200     NO 
 Predicted change in Energy=-8.668340D-04
 GradGradGradGradGradGradGradGradGradGradGradGradGradGradGradGradGradGrad

                          Input orientation:                          
 ---------------------------------------------------------------------
 Center     Atomic      Atomic             Coordinates (Angstroms)
 Number     Number       Type             X           Y           Z
 ---------------------------------------------------------------------
      1          6           0       -0.208750   -3.903242    0.000000
      2          1           0        0.071736   -4.952477    0.000000
      3          1           0       -1.274984   -3.689955    0.000000
      4          6           0        0.725268   -2.936881    0.000000
      5          1           0        1.770803   -3.246056    0.000000
      6          6           0        0.522307   -1.488631    0.000000
      7          1           0        1.438926   -0.899350    0.000000
      8          6           0       -0.664106   -0.835043    0.000000
      9          1           0       -1.578399   -1.428589    0.000000
     10          6           0       -0.875555    0.602794    0.000000
     11          1           0       -1.920901    0.914896    0.000000
     12          6           0        0.060844    1.583103    0.000000
     13          1           0        1.120795    1.326851    0.000000
     14          6           0       -0.254274    2.997343    0.000000
     15          1           0       -1.314768    3.254106    0.000000
     16          6           0        0.659418    3.983937    0.000000
     17          1           0        0.372454    5.031305    0.000000
     18          1           0        1.726137    3.769805    0.000000
 ---------------------------------------------------------------------
                    Distance matrix (angstroms):
                    1          2          3          4          5
     1  C    0.000000
     2  H    1.086079   0.000000
     3  H    1.087358   1.845974   0.000000
     4  C    1.343965   2.118898   2.137318   0.000000
     5  H    2.085791   2.408049   3.077965   1.090291   0.000000
     6  C    2.522854   3.493028   2.841845   1.462402   2.155756
     7  H    3.426106   4.277505   3.892658   2.158898   2.370058
     8  C    3.101805   4.182670   2.919537   2.519540   3.426626
     9  H    2.828400   3.891110   2.281630   2.753511   3.810556
    10  C    4.555106   5.635459   4.311292   3.884834   4.670852
    11  H    5.113308   6.196505   4.649932   4.673157   5.562572
    12  C    5.492965   6.535590   5.439631   4.568558   5.122962
    13  H    5.396440   6.366356   5.559506   4.282039   4.618873
    14  C    6.900735   7.956502   6.764747   6.014525   6.563610
    15  H    7.242300   8.322884   6.944175   6.518440   7.195336
    16  C    7.934817   8.955718   7.913946   6.921132   7.314915
    17  H    8.953431   9.988310   8.875496   7.975994   8.394647
    18  H    7.913245   8.877796   8.040818   6.780958   7.016004
                    6          7          8          9         10
     6  C    0.000000
     7  H    1.089699   0.000000
     8  C    1.354530   2.104015   0.000000
     9  H    2.101564   3.063387   1.090059   0.000000
[...]
 ! R10   R(10,11)                1.0902         -DE/DX =    0.0                 !
 ! R11   R(10,12)                1.3559         -DE/DX =    0.0001              !
 ! R12   R(12,13)                1.0898         -DE/DX =    0.0                 !
 ! R13   R(12,14)                1.4474         -DE/DX =    0.0                 !
 ! R14   R(14,15)                1.0907         -DE/DX =    0.0                 !
 ! R15   R(14,16)                1.3444         -DE/DX =    0.0                 !
 ! R16   R(16,17)                1.0855         -DE/DX =    0.0                 !
 ! R17   R(16,18)                1.0877         -DE/DX =    0.0                 !
 ! A1    A(2,1,3)              116.3029         -DE/DX =    0.0                 !
 ! A2    A(2,1,4)              120.9834         -DE/DX =    0.0                 !
 ! A3    A(3,1,4)              122.7137         -DE/DX =    0.0                 !
 ! A4    A(1,4,5)              117.5156         -DE/DX =    0.0                 !
 ! A5    A(1,4,6)              127.8702         -DE/DX =    0.0                 !
 ! A6    A(5,4,6)              114.6142         -DE/DX =    0.0                 !
 ! A7    A(4,6,7)              114.9223         -DE/DX =    0.0                 !
 ! A8    A(4,6,8)              126.6669         -DE/DX =    0.0                 !
 ! A9    A(7,6,8)              118.4108         -DE/DX =    0.0                 !
 ! A10   A(6,8,9)              118.0382         -DE/DX =    0.0                 !
 ! A11   A(6,8,10)             127.1683         -DE/DX =    0.0                 !
 ! A12   A(9,8,10)             114.7936         -DE/DX =    0.0                 !
 ! A13   A(8,10,11)            115.117          -DE/DX =    0.0                 !
 ! A14   A(8,10,12)            127.8096         -DE/DX =    0.0                 !
 ! A15   A(11,10,12)           117.0735         -DE/DX =    0.0                 !
 ! A16   A(10,12,13)           120.0625         -DE/DX =    0.0                 !
 ! A17   A(10,12,14)           123.5837         -DE/DX =    0.0                 !
 ! A18   A(13,12,14)           116.3538         -DE/DX =    0.0                 !
 ! A19   A(12,14,15)           116.3278         -DE/DX =    0.0                 !
 ! A20   A(12,14,16)           124.52           -DE/DX =    0.0                 !
 ! A21   A(15,14,16)           119.1523         -DE/DX =    0.0                 !
 ! A22   A(14,16,17)           121.7561         -DE/DX =    0.0                 !
 ! A23   A(14,16,18)           121.5474         -DE/DX =    0.0                 !
 ! A24   A(17,16,18)           116.6965         -DE/DX =    0.0                 !
 ! D1    D(2,1,4,5)              0.0            -DE/DX =    0.0                 !
 ! D2    D(2,1,4,6)            180.0            -DE/DX =    0.0                 !
 ! D3    D(3,1,4,5)            180.0            -DE/DX =    0.0                 !
 ! D4    D(3,1,4,6)              0.0            -DE/DX =    0.0                 !
 ! D5    D(1,4,6,7)            180.0            -DE/DX =    0.0                 !
 ! D6    D(1,4,6,8)              0.0            -DE/DX =    0.0                 !
 ! D7    D(5,4,6,7)              0.0            -DE/DX =    0.0                 !
 ! D8    D(5,4,6,8)            180.0            -DE/DX =    0.0                 !
 ! D9    D(4,6,8,9)              0.0            -DE/DX =    0.0                 !
 ! D10   D(4,6,8,10)           180.0            -DE/DX =    0.0                 !
 ! D11   D(7,6,8,9)            180.0            -DE/DX =    0.0                 !
 ! D12   D(7,6,8,10)             0.0            -DE/DX =    0.0                 !
 ! D13   D(6,8,10,11)          180.0            -DE/DX =    0.0                 !
 ! D14   D(6,8,10,12)            0.0            -DE/DX =    0.0                 !
 ! D15   D(9,8,10,11)            0.0            -DE/DX =    0.0                 !
 ! D16   D(9,8,10,12)          180.0            -DE/DX =    0.0                 !
 ! D17   D(8,10,12,13)           0.0            -DE/DX =    0.0                 !
 ! D18   D(8,10,12,14)         180.0            -DE/DX =    0.0                 !
 ! D19   D(11,10,12,13)        180.0            -DE/DX =    0.0                 !
 ! D20   D(11,10,12,14)          0.0            -DE/DX =    0.0                 !
 ! D21   D(10,12,14,15)          0.0            -DE/DX =    0.0                 !
 ! D22   D(10,12,14,16)        180.0            -DE/DX =    0.0                 !
 ! D23   D(13,12,14,15)        180.0            -DE/DX =    0.0                 !
 ! D24   D(13,12,14,16)          0.0            -DE/DX =    0.0                 !
 ! D25   D(12,14,16,17)        180.0            -DE/DX =    0.0                 !
 ! D26   D(12,14,16,18)          0.0            -DE/DX =    0.0                 !
 ! D27   D(15,14,16,17)          0.0            -DE/DX =    0.0                 !
 ! D28   D(15,14,16,18)        180.0            -DE/DX =    0.0                 !
 --------------------------------------------------------------------------------
 GradGradGradGradGradGradGradGradGradGradGradGradGradGradGradGradGradGrad

 1\1\GINC-STUDENT-LENOVO-S510\Freq\RB3LYP\6-31G(d)\C8H10\STUDENT\02-Mar
 -2021\0\\#N Geom=AllCheck Guess=TCheck SCRF=Check GenChk RB3LYP/6-31G(
 d) Freq\\Title Card Required\\0,1\C,-0.2102397936,-3.8967126717,0.\H,0
 .0673691025,-4.9461738855,0.\H,-1.2753451647,-3.6802841136,0.\C,0.7266
 556427,-2.9332743438,0.\H,1.7704489563,-3.2461127903,0.\C,0.5251210411
 ,-1.486469219,0.\H,1.439892114,-0.8957562039,0.\C,-0.66291716,-0.83504
 38357,0.\H,-1.5739596619,-1.4317811688,0.\C,-0.8758709266,0.6016217949
 ,0.\H,-1.9201835446,0.9146432915,0.\C,0.061881053,1.5809017978,0.\H,1.
 1207135352,1.3228549081,0.\C,-0.2552750767,2.9931446654,0.\H,-1.315061
 032,3.2509144044,0.\C,0.6585658677,3.9792173456,0.\H,0.369907762,5.025
 6736334,0.\H,1.7252482758,3.7665508612,0.\\Version=EM64L-G09RevC.01\St
 ate=1-A'\HF=-310.7938896\RMSD=3.994e-09\RMSF=2.029e-05\ZeroPoint=0.152
 3368\Thermal=0.1607973\Dipole=-0.0053435,-0.0028786,0.\DipoleDeriv=0.0
 481982,-0.0197678,0.,-0.0470255,-0.2827691,0.,0.,0.,-0.2938093,0.04256
 6,0.0317266,0.,0.0212423,-0.1107298,0.,0.,0.,0.1337486,-0.0895144,0.02
 06825,0.,0.0622983,0.0376063,0.,0.,0.,0.1351979,0.1502271,-0.4446013,0
 .,-0.0582209,0.32297,0.,0.,0.,-0.0898131,-0.1230706,0.0980031,0.,0.030
 3177,-0.0188193,0.,0.,0.,0.1096236,0.0283338,0.3970425,0.,0.0480179,-0
 .0329563,0.,0.,0.,-0.1067094,-0.0637366,-0.0691964,0.,-0.0785254,-0.01
 78095,0.,0.,0.,0.1074093,0.0580005,0.4030365,0.,0.0769906,0.1892519,0.
 ,0.,0.,-0.0997088,-0.0642238,-0.084829,0.,-0.0828156,-0.0333877,0.,0.,
 0.,0.1062361,0.1589991,-0.4331934,0.,-0.1013076,0.0407916,0.,0.,0.,-0.
 1269042,-0.1090005,0.0767301,0.,0.0643688,-0.0045344,0.,0.,0.,0.111293
 8,0.041997,0.1171907,0.,0.0234249,-0.0441114,0.,0.,0.,-0.0877554,-0.09
 7091,0.0535536,0.,0.0298786,0.0004785,0.,0.,0.,0.1082284,0.1194315,-0.
 2851407,0.,0.0337494,0.2998176,0.,0.,0.,-0.0747083,-0.1153238,0.09337,
 0.,0.0004473,0.0018563,0.,0.,0.,0.107744,0.0746127,-0.0068983,0.,-0.10
 8626,-0.2668135,0.,0.,0.,-0.3162498,0.0308459,0.0355564,0.,0.0201554,-
 0.1089109,0.,0.,0.,0.1375531,-0.091251,0.0167351,0.,0.0656298,0.028069
 5,0.,0.,0.,0.1386235\Polar=83.4624252,13.7626679,227.941702,0.,0.,29.0
 16672\PG=CS [SG(C8H10)]\NImag=1\\0.73713908,0.08992472,0.74461461,0.,0
 .,0.09986163,-0.07930257,0.07833294,0.,0.07598797,0.07388928,-0.324217
 04,0.,-0.07797249,0.34404311,0.,0.,-0.02919564,0.,0.,0.02071366,-0.326
 39161,0.05708852,0.,-0.00414913,-0.00026787,0.,0.34939032,0.05943205,-
 0.07306371,0.,0.02742752,-0.00222124,0.,-0.06164472,0.06768627,0.,0.,-
 0.03481412,0.,0.,0.00266959,0.,0.,0.02104929,-0.32316936,-0.21048080,0
 .,0.00862750,0.00815015,0.,-0.01947913,-0.02318484,0.,0.74739798,-0.19
 163448,-0.30937789,0.,-0.02484325,-0.01845364,0.,0.00616360,0.01192904
 ,0.,0.10667317,0.67917921,0.,0.,-0.04961053,0.,0.,0.00398568,0.,0.,0.0
 0491719,0.,0.,0.12963664,-0.02200850,0.00701258,0.,0.00138025,-0.00021
 666,0.,-0.00125271,-0.00330014,0.,-0.30624609,0.07596524,0.,0.32846435
 ,-0.02509685,0.00868926,0.,-0.00016063,0.00110789,0.,-0.00334561,-0.00
 263596,0.,0.07572937,-0.08076646,0.,-0.07897350,0.08818536,0.,0.,0.005
 12515,0.,0.,-0.00776610,0.,0.,0.01219065,0.,0.,-0.04086943,0.,0.,0.027
 09433,0.01960937,-0.01227998,0.,-0.00268157,-0.00363902,0.,0.00046765,
 0.00121128,0.,-0.11397975,-0.00699850,0.,-0.00289160,0.03195646,0.,0.7
 7256889,-0.01738725,-0.04494612,0.,-0.00163186,0.00036441,0.,0.0019827
 0,0.00019594,0.,0.04168497,-0.23915959,0.,-0.00130760,-0.00939586,0.,-
 0.05179893,0.62767452,0.,0.,0.00618660,0.,0.,0.01054994,0.,0.,-0.00725
 229,0.,0.,-0.05781197,0.,0.,0.00302307,0.,0.,0.12781334,0.00065659,0.0
 0100974,0.,0.00007922,0.00018109,0.,0.00009075,0.00020999,0.,0.0048456
 9,0.00548753,0.,0.00124167,-0.00005998,0.,-0.24910738,-0.12400626,0.,0
 .26804926,0.00335843,-0.00479128,0.,-0.00107257,-0.00104031,0.,-0.0001
 3123,0.00022880,0.,-0.02824121,-0.01674841,0.,0.00019631,0.00094952,0.
 ,-0.12273872,-0.13844672,0.,0.13252291,0.15015073,0.,0.,0.00200544,0.,
 0.,-0.00000228,0.,0.,-0.00014093,0.,0.,0.00369931,0.,0.,-0.00103589,0.
 ,0.,-0.04032685,0.,0.,0.02413884,-0.00651577,-0.01102252,0.,-0.0009066
 4,-0.00019864,0.,-0.00016534,-0.00099358,0.,0.00642454,0.03328335,0.,0
 .00130774,-0.00153490,0.,-0.39878079,0.13172231,0.,-0.02470899,0.01258
 713,0.,0.77122292,0.01048198,0.00754174,0.,0.00004862,0.00029614,0.,-0
 .00028554,-0.00048638,0.,0.02701764,-0.03965311,0.,0.00076927,-0.00609
 057,0.,0.12869153,-0.16971212,0.,-0.01788028,0.01347288,0.,-0.05083734
 ,0.63397489,0.,0.,0.00060990,0.,0.,-0.00062848,0.,0.,0.00050612,0.,0.,
 0.00474205,0.,0.,0.00240884,0.,0.,-0.05617848,0.,0.,0.00586566,0.,0.,0
 .12930282,-0.00046948,0.00020679,0.,0.00056480,0.00001108,0.,0.0009980
 1,0.00055232,0.,0.00110100,-0.00146059,0.,0.00017129,0.00007225,0.,-0.
 02495979,-0.01780187,0.,-0.00356431,0.00304550,0.,-0.24730998,-0.12461
 237,0.,0.26635214,0.00096596,-0.00032546,0.,-0.00008476,0.00015005,0.,
 0.00023838,-0.00175456,0.,-0.00040283,-0.00096290,0.,-0.00024145,0.000
 18848,0.,0.01226686,0.01361584,0.,0.00305088,-0.00099512,0.,-0.1231689
 0,-0.13990925,0.,0.13304421,0.15177894,0.,0.,0.00034656,0.,0.,-0.00024
 728,0.,0.,0.00115466,0.,0.,-0.00664454,0.,0.,-0.00013786,0.,0.,0.00583
 428,0.,0.,0.01129805,0.,0.,-0.04131234,0.,0.,0.02498576,-0.00112563,-0
 .00207276,0.,0.00030771,0.00002075,0.,0.00051895,0.00029186,0.,-0.0049
 5517,0.00310591,0.,-0.00009394,0.00139659,0.,0.00687064,0.02735317,0.,
 0.00124530,-0.00056974,0.,-0.11589711,0.04583854,0.,0.00500102,-0.0279
 8986,0.,0.72422190,-0.00579136,-0.00506477,0.,-0.00011695,0.00008544,0
 .,0.00012314,-0.00001723,0.,0.00330188,0.01825021,0.,-0.00014292,0.000
 45257,0.,0.03747957,-0.04152056,0.,-0.00138446,-0.00089575,0.,-0.00759
 070,-0.24630917,0.,0.00543801,-0.01731693,0.,0.08197191,0.68098002,0.,
 0.,-0.00048998,0.,0.,-0.00015789,0.,0.,-0.00034661,0.,0.,0.00882509,0.
 ,0.,0.00015281,0.,0.,0.00513937,0.,0.,-0.00663719,0.,0.,-0.05619218,0.
 ,0.,0.00352747,0.,0.,0.12889033,-0.00006674,0.00012683,0.,0.00002119,0
 .00002976,0.,0.00000925,-0.00001579,0.,-0.00014035,-0.00017388,0.,-0.0
 0001860,0.00011484,0.,0.00136177,0.00065009,0.,0.00015397,-0.00022529,
 0.,-0.00277809,-0.00119240,0.,0.00126728,0.00015156,0.,-0.30499058,0.0
 7381601,0.,0.32790081,-0.00003001,-0.00016770,0.,-0.00004735,-0.000051
 50,0.,-0.00003602,-0.00001045,0.,0.00139713,0.00043509,0.,0.00010992,-
 0.00048658,0.,-0.00151108,-0.00582041,0.,0.00007983,0.00018951,0.,0.03
 191249,-0.00919667,0.,0.00000039,0.00094928,0.,0.07344605,-0.08068394,
 0.,-0.07787411,0.08795120,0.,0.,0.00001932,0.,0.,-0.00000852,0.,0.,0.0
 0001211,0.,0.,0.00018277,0.,0.,-0.00020283,0.,0.,0.00267335,0.,0.,-0.0
 0018913,0.,0.,0.00290512,0.,0.,-0.00127809,0.,0.,-0.03929496,0.,0.,0.0
 2592359,0.00147460,0.00201213,0.,0.00000810,-0.00001452,0.,-0.00008847
 ,-0.00002886,0.,-0.00103401,-0.00526529,0.,-0.00014860,0.00006953,0.,-
 0.00609848,0.01027212,0.,-0.00089146,0.00105234,0.,0.01902223,-0.01611
 615,0.,0.00063551,0.00354300,0.,-0.30361053,-0.17080556,0.,-0.02347586
 ,-0.02335014,0.,0.74455599,0.00271258,0.00195745,0.,0.00011191,-0.0000
 8622,0.,0.00007785,0.00013754,0.,-0.00238296,-0.00719472,0.,0.00008270
 ,-0.00016351,0.,-0.01605774,0.01146300,0.,0.00010035,-0.00023086,0.,-0
 .00774075,-0.05445898,0.,0.00125172,-0.00490303,0.,-0.17538038,-0.2674
 8801,0.,0.00683381,0.00902299,0.,0.08192241,0.68373784,0.,0.,-0.000081
 97,0.,0.,0.00013519,0.,0.,-0.00007485,0.,0.,-0.00047745,0.,0.,0.000012
 32,0.,0.,0.00052637,0.,0.,0.00019248,0.,0.,0.00479775,0.,0.,0.00278978
 ,0.,0.,-0.05472609,0.,0.,0.00505563,0.,0.,0.12952242,-0.00008437,0.000
 10208,0.,0.00003040,0.00003919,0.,0.00001840,0.00000190,0.,0.00054650,
 0.00009964,0.,0.00000942,-0.00003877,0.,-0.00028983,-0.00017503,0.,0.0
 0110970,0.00030226,0.,0.00040294,0.00168127,0.,0.00010794,-0.00011832,
 0.,-0.02039926,0.00639679,0.,-0.00157658,-0.00289077,0.,-0.31190423,0.
 06205799,0.,0.33586993,-0.00001106,0.00010989,0.,0.00002351,0.00003213
 ,0.,0.00000754,-0.00000516,0.,0.00027580,-0.00000168,0.,-0.00000818,-0
 .00002492,0.,-0.00097746,-0.00074432,0.,0.00059066,-0.00181715,0.,0.00
 126217,0.00009292,0.,0.00020600,0.00019777,0.,-0.02331416,0.01134315,0
 .,-0.00324266,-0.00290109,0.,0.06197825,-0.07474598,0.,-0.06844976,0.0
 7764129,0.,0.,-0.00006290,0.,0.,0.00015601,0.,0.,-0.00002524,0.,0.,-0.
 00046203,0.,0.,0.00001269,0.,0.,0.00044381,0.,0.,0.00118943,0.,0.,-0.0
 0580562,0.,0.,-0.00017282,0.,0.,0.00523055,0.,0.,0.01033148,0.,0.,-0.0
 4100900,0.,0.,0.02467178,-0.00013993,-0.00058462,0.,0.00001108,-0.0000
 3065,0.,0.00003548,0.00004072,0.,0.00008188,0.00105252,0.,0.00011960,-
 0.00012205,0.,0.00038352,-0.00117083,0.,0.00077677,-0.00011691,0.,-0.0
 0447257,0.00072199,0.,0.00005372,-0.00141109,0.,0.00671208,-0.03226025
 ,0.,0.00095345,-0.00230964,0.,-0.11846777,0.06102384,0.,-0.00643721,0.
 03118411,0.,0.75552695,-0.00153273,-0.00099903,0.,-0.00000045,0.000075
 44,0.,0.00002954,-0.00002553,0.,0.00145608,0.00370429,0.,-0.00005969,0
 .00010858,0.,0.00686314,-0.00544256,0.,0.00020421,-0.00016184,0.,-0.00
 951674,0.01576034,0.,0.00006463,-0.00000054,0.,-0.01588575,-0.05968100
 ,0.,0.00262504,0.00087970,0.,0.05949821,-0.24079842,0.,0.00054905,-0.0
 0576691,0.,0.10438919,0.69782386,0.,0.,0.00012194,0.,0.,-0.00021549,0.
 ,0.,0.00016576,0.,0.,-0.00020950,0.,0.,-0.00001638,0.,0.,-0.00066513,0
 .,0.,-0.00002885,0.,0.,0.01019206,0.,0.,-0.00004721,0.,0.,0.00512768,0
 .,0.,-0.00702998,0.,0.,-0.06031223,0.,0.,0.00337967,0.,0.,0.13172497,-
 0.00003736,0.00008080,0.,0.00000619,0.00001447,0.,0.00000411,-0.000004
 19,0.,0.00014333,-0.00004419,0.,-0.00001298,0.00000683,0.,-0.00008004,
 -0.00018542,0.,0.00005428,-0.00001673,0.,0.00019334,0.00022124,0.,0.00
 001472,0.00007918,0.,0.00099822,-0.00163573,0.,0.00072317,0.00072283,0
 .,-0.00673464,0.00090108,0.,0.00059422,0.00090140,0.,-0.31068916,0.062
 77952,0.,0.33428760,0.00003187,-0.00006964,0.,-0.00001300,-0.00001382,
 0.,-0.00000639,-0.00000059,0.,-0.00020759,0.00003229,0.,0.00000326,0.0
 0001677,0.,0.00030794,0.00004372,0.,-0.00022471,0.00003440,0.,-0.00039
 846,0.00023879,0.,-0.00003733,-0.00003643,0.,0.00200108,0.00155023,0.,
 -0.00136601,-0.00016349,0.,0.03091812,-0.00621803,0.,0.00073204,-0.005
 21121,0.,0.06384803,-0.07438595,0.,-0.06707335,0.07746673,0.,0.,-0.000
 01760,0.,0.,0.00000155,0.,0.,0.00000580,0.,0.,0.00001856,0.,0.,0.00000
 217,0.,0.,0.00002000,0.,0.,0.00002335,0.,0.,-0.00017701,0.,0.,0.000036
 56,0.,0.,-0.00168856,0.,0.,0.00022656,0.,0.,0.00307805,0.,0.,0.0036552
 9,0.,0.,-0.04182143,0.,0.,0.02743313,0.00043145,0.00058535,0.,0.000013
 86,0.00000819,0.,-0.00001425,-0.00000071,0.,-0.00015588,-0.00146555,0.
 ,-0.00003769,0.00000853,0.,-0.00233040,0.00192023,0.,-0.00005785,0.000
 03236,0.,0.00320491,-0.00449303,0.,0.00002693,0.00018931,0.,0.00394000
 ,0.01255448,0.,0.00048597,0.00007025,0.,0.00880671,-0.01618233,0.,0.00
 114729,0.00124196,0.,-0.31443248,-0.19380894,0.,-0.01967579,-0.0253911
 5,0.,0.72644540,0.00068109,0.00015553,0.,-0.00000189,-0.00006257,0.,0.
 00000178,0.00003646,0.,-0.00075828,-0.00125822,0.,0.00009710,-0.000117
 58,0.,-0.00276667,0.00189210,0.,0.00010478,0.00009510,0.,0.00239906,-0
 .00552537,0.,0.00000528,-0.00057172,0.,0.00909891,0.00721310,0.,-0.000
 42826,0.00010929,0.,-0.03009565,-0.05130625,0.,-0.00112180,0.00165832,
 0.,-0.20934757,-0.32244778,0.,0.00645083,0.00846895,0.,0.08947568,0.75
 717011,0.,0.,0.00001736,0.,0.,0.00000021,0.,0.,-0.00000769,0.,0.,-0.00
 004714,0.,0.,-0.00000107,0.,0.,-0.00000353,0.,0.,0.00003377,0.,0.,0.00
 004396,0.,0.,-0.00017088,0.,0.,0.00260661,0.,0.,0.00010920,0.,0.,0.006
 24572,0.,0.,-0.00159416,0.,0.,-0.04900639,0.,0.,0.00507174,0.,0.,0.100
 94643,0.00001516,-0.00002266,0.,0.00000058,-0.00000373,0.,0.00000382,0
 .00000394,0.,-0.00002488,0.00000883,0.,0.00001000,-0.00001332,0.,-0.00
 008326,-0.00000831,0.,0.00001314,0.00001335,0.,-0.00018265,-0.00017592
 ,0.,0.00000295,-0.00010114,0.,0.00096194,-0.00086002,0.,-0.00000500,0.
 00010062,0.,-0.00328935,-0.00177869,0.,0.00029125,-0.00042539,0.,0.009
 74427,-0.02375761,0.,0.00130267,0.00016230,0.,-0.08186745,0.08035492,0
 .,0.07714825,0.00000477,-0.00006653,0.,-0.00000099,-0.00001316,0.,0.00
 000409,0.00000829,0.,-0.00006125,0.00006836,0.,0.00001649,-0.00001577,
 0.,0.00008323,-0.00003985,0.,-0.00001797,0.00001799,0.,-0.00029399,-0.
 00000005,0.,0.00000048,-0.00012662,0.,0.00067779,-0.00089053,0.,-0.000
 07416,0.00002015,0.,-0.00404207,-0.00034042,0.,0.00006542,0.00028201,0
 .,0.00921582,-0.01803522,0.,-0.00022630,0.00106205,0.,0.07580027,-0.32
 309957,0.,-0.08071932,0.34299714,0.,0.,-0.00001879,0.,0.,0.00003827,0.
 ,0.,-0.00003707,0.,0.,0.00004264,0.,0.,0.00000304,0.,0.,0.00010320,0.,
 0.,-0.00008136,0.,0.,-0.00116640,0.,0.,0.00003432,0.,0.,-0.00007221,0.
 ,0.,0.00021193,0.,0.,0.01173746,0.,0.,-0.00028230,0.,0.,0.00411597,0.,
 0.,-0.00692922,0.,0.,-0.03119970,0.,0.,0.02128842,-0.00001491,-0.00001
 911,0.,0.00000106,-0.00000039,0.,0.00000391,0.00000126,0.,0.00001620,0
 .00004593,0.,0.00000639,-0.00000880,0.,0.00002106,-0.00011221,0.,0.000
 01365,0.00000182,0.,-0.00006067,0.00012096,0.,0.00000625,-0.00001097,0
 .,0.00029443,-0.00049385,0.,0.00017495,0.00020963,0.,0.00124024,0.0024
 4662,0.,0.00056349,-0.00124274,0.,-0.01975965,0.00610328,0.,-0.0010918
 8,-0.00328663,0.,-0.32593074,0.05585068,0.,-0.00404143,-0.00043229,0.,
 0.34855765,0.00000101,0.00002068,0.,0.00000169,0.00000490,0.,0.0000002
 5,-0.00000151,0.,0.00003357,-0.00002188,0.,-0.00000273,-0.00000121,0.,
 -0.00009191,-0.00002143,0.,0.00003167,-0.00001148,0.,0.00013003,-0.000
 03606,0.,0.00001350,0.00002221,0.,0.00001011,-0.00000684,0.,0.00024463
 ,-0.00007540,0.,-0.00154785,0.00161559,0.,0.00076685,-0.00013906,0.,-0
 .02412260,0.00939258,0.,-0.00297227,-0.00281478,0.,0.05945510,-0.07240
 989,0.,0.02722215,-0.00182827,0.,-0.05917318,0.06631186,0.,0.,-0.00000
 236,0.,0.,-0.00002842,0.,0.,0.00002763,0.,0.,0.00008266,0.,0.,0.000004
 49,0.,0.,-0.00007510,0.,0.,-0.00000386,0.,0.,0.00008624,0.,0.,0.000003
 60,0.,0.,0.00010577,0.,0.,0.00035245,0.,0.,-0.00741156,0.,0.,0.0003433
 6,0.,0.,0.00452454,0.,0.,0.01106107,0.,0.,-0.03304445,0.,0.,0.00221180
 ,0.,0.,0.02176215\\0.00001163,0.00001673,0.,-0.00000223,0.00001037,0.,
 0.00002269,-0.00000389,0.,-0.00000314,-0.00002576,0.,-0.00001370,0.000
 01515,0.,-0.00004786,0.00002201,0.,-0.00001902,-0.00001455,0.,0.000038
 87,-0.00002280,0.,0.00001387,0.00002543,0.,0.00004107,0.00003404,0.,-0
 .00000497,-0.00001474,0.,0.00001507,-0.00007397,0.,-0.00000768,0.00000
 614,0.,-0.00003921,0.00005459,0.,-0.00000447,-0.00000129,0.,-0.0000008
 7,-0.00001871,0.,-0.00000029,-0.00000970,0.,0.00000024,0.00000096,0.\\
 \@


 CHRISTMAS IS ON TOP OF A STEEP HILL.
 THE CLOSER YOU GET, THE STEEPER THE HILL IS.
          -- LINUS, OF PEANUTS
 Job cpu time:  0 days  0 hours  2 minutes  7.9 seconds.
 File lengths (MBytes):  RWF=     49 Int=      0 D2E=      0 Chk=      3 Scr=      1
 Normal termination of Gaussian 09 at Tue Mar  2 16:36:17 2021.
