 Entering Gaussian System, Link 0=g09
 Input=dimer_b.com
 Output=dimer_b.log
 Initial command:
 /home/student/g09/l1.exe /home/student/Aniruddha_1811022/Gau-2614.inp -scrdir=/home/student/Aniruddha_1811022/
 Entering Link 1 = /home/student/g09/l1.exe PID=      2617.
  
 Copyright (c) 1988,1990,1992,1993,1995,1998,2003,2009,2011,
            Gaussian, Inc.  All Rights Reserved.
  
 This is part of the Gaussian(R) 09 program.  It is based on
 the Gaussian(R) 03 system (copyright 2003, Gaussian, Inc.),
 the Gaussian(R) 98 system (copyright 1998, Gaussian, Inc.),
 the Gaussian(R) 94 system (copyright 1995, Gaussian, Inc.),
 the Gaussian 92(TM) system (copyright 1992, Gaussian, Inc.),
 the Gaussian 90(TM) system (copyright 1990, Gaussian, Inc.),
 the Gaussian 88(TM) system (copyright 1988, Gaussian, Inc.),
 the Gaussian 86(TM) system (copyright 1986, Carnegie Mellon
 University), and the Gaussian 82(TM) system (copyright 1983,
 Carnegie Mellon University). Gaussian is a federally registered
 trademark of Gaussian, Inc.
  
 This software contains proprietary and confidential information,
 including trade secrets, belonging to Gaussian, Inc.
  
 This software is provided under written license and may be
 used, copied, transmitted, or stored only in accord with that
 written license.
  
 The following legend is applicable only to US Government
 contracts under FAR:
  
                    RESTRICTED RIGHTS LEGEND
  
 Use, reproduction and disclosure by the US Government is
 subject to restrictions as set forth in subparagraphs (a)
 and (c) of the Commercial Computer Software - Restricted
 Rights clause in FAR 52.227-19.
  
 Gaussian, Inc.
 340 Quinnipiac St., Bldg. 40, Wallingford CT 06492
  
  
 ---------------------------------------------------------------
 Warning -- This program may not be used in any manner that
 competes with the business of Gaussian, Inc. or will provide
 assistance to any competitor of Gaussian, Inc.  The licensee
 of this program is prohibited from giving any competitor of
 Gaussian, Inc. access to this program.  By using this program,
 the user acknowledges that Gaussian, Inc. is engaged in the
 business of creating and licensing software in the field of
 computational chemistry and represents and warrants to the
 licensee that it is not a competitor of Gaussian, Inc. and that
 it will not use this program in any manner prohibited above.
 ---------------------------------------------------------------
  

 Cite this work as:
 Gaussian 09, Revision C.01,
 M. J. Frisch, G. W. Trucks, H. B. Schlegel, G. E. Scuseria, 
 M. A. Robb, J. R. Cheeseman, G. Scalmani, V. Barone, B. Mennucci, 
 G. A. Petersson, H. Nakatsuji, M. Caricato, X. Li, H. P. Hratchian, 
 A. F. Izmaylov, J. Bloino, G. Zheng, J. L. Sonnenberg, M. Hada, 
 M. Ehara, K. Toyota, R. Fukuda, J. Hasegawa, M. Ishida, T. Nakajima, 
 Y. Honda, O. Kitao, H. Nakai, T. Vreven, J. A. Montgomery, Jr., 
 J. E. Peralta, F. Ogliaro, M. Bearpark, J. J. Heyd, E. Brothers, 
 K. N. Kudin, V. N. Staroverov, T. Keith, R. Kobayashi, J. Normand, 
 K. Raghavachari, A. Rendell, J. C. Burant, S. S. Iyengar, J. Tomasi, 
 M. Cossi, N. Rega, J. M. Millam, M. Klene, J. E. Knox, J. B. Cross, 
 V. Bakken, C. Adamo, J. Jaramillo, R. Gomperts, R. E. Stratmann, 
 O. Yazyev, A. J. Austin, R. Cammi, C. Pomelli, J. W. Ochterski, 
 R. L. Martin, K. Morokuma, V. G. Zakrzewski, G. A. Voth, 
 P. Salvador, J. J. Dannenberg, S. Dapprich, A. D. Daniels, 
 O. Farkas, J. B. Foresman, J. V. Ortiz, J. Cioslowski, 
 and D. J. Fox, Gaussian, Inc., Wallingford CT, 2010.
 
 ******************************************
 Gaussian 09:  EM64L-G09RevC.01 23-Sep-2011
                 1-Mar-2021 
 ******************************************
 %chk=dimer.chk
 ------------------------------------------
 # b3lyp/6-31g** geom=connectivity opt freq
 ------------------------------------------
 1/14=-1,18=20,19=15,26=3,38=1,57=2/1,3;
 2/9=110,12=2,17=6,18=5,40=1/2;
 3/5=1,6=6,7=101,11=2,16=1,25=1,30=1,71=1,74=-5/1,2,3;
 4//1;
 5/5=2,38=5/2;
 6/7=2,8=2,9=2,10=2,28=1/1;
 7//1,2,3,16;
 1/14=-1,18=20,19=15/3(2);
 2/9=110/2;
 99//99;
 2/9=110/2;
 3/5=1,6=6,7=101,11=2,16=1,25=1,30=1,71=1,74=-5/1,2,3;
 4/5=5,16=3/1;
 5/5=2,38=5/2;
 7//1,2,3,16;
 1/14=-1,18=20,19=15/3(-5);
 2/9=110/2;
 6/7=2,8=2,9=2,10=2,19=2,28=1/1;
 99/9=1/99;
 -------------------
 Title Card Required
 -------------------
 Charge =  1 Multiplicity = 1
 Symbolic Z-Matrix:
 O                    -4.70691  -1.59309  -0.3407 
 H                    -4.23272  -0.91724  -0.83058 
 H                    -5.49058  -1.20873   0.05897 
 O                    -4.70593  -4.32557   1.9392 
 H                    -5.35515  -4.77383   2.48617 
 H                    -4.31445  -3.44917   1.92299 
 H                    -4.70633  -3.2357    1.02984 
 

 GradGradGradGradGradGradGradGradGradGradGradGradGradGradGradGradGradGrad
 Berny optimization.
 Initialization pass.
                           ----------------------------
                           !    Initial Parameters    !
                           ! (Angstroms and Degrees)  !
 --------------------------                            --------------------------
 ! Name  Definition              Value          Derivative Info.                !
 --------------------------------------------------------------------------------
 ! R1    R(1,2)                  0.96           estimate D2E/DX2                !
 ! R2    R(1,3)                  0.96           estimate D2E/DX2                !
 ! R3    R(1,7)                  2.1393         estimate D2E/DX2                !
 ! R4    R(4,5)                  0.96           estimate D2E/DX2                !
 ! R5    R(4,6)                  0.96           estimate D2E/DX2                !
 ! R6    R(6,7)                  0.9984         estimate D2E/DX2                !
 ! A1    A(2,1,3)              109.5            estimate D2E/DX2                !
 ! A2    A(2,1,7)              150.1505         estimate D2E/DX2                !
 ! A3    A(3,1,7)               92.3451         estimate D2E/DX2                !
 ! A4    A(5,4,6)              135.3713         estimate D2E/DX2                !
 ! A5    A(4,6,7)               92.88           estimate D2E/DX2                !
 ! A6    A(1,7,6)              137.5087         estimate D2E/DX2                !
 ! D1    D(2,1,3,7)           -159.2904         estimate D2E/DX2                !
 ! D2    D(2,1,7,6)             47.6643         estimate D2E/DX2                !
 ! D3    D(3,1,7,6)            -90.2884         estimate D2E/DX2                !
 ! D4    D(5,4,6,7)           -116.07           estimate D2E/DX2                !
 ! D5    D(4,6,7,1)            180.0            estimate D2E/DX2                !
 --------------------------------------------------------------------------------
 Trust Radius=3.00D-01 FncErr=1.00D-07 GrdErr=1.00D-06
 Number of steps in this run=     27 maximum allowed number of steps=    100.
 GradGradGradGradGradGradGradGradGradGradGradGradGradGradGradGradGradGrad

                          Input orientation:                          
 ---------------------------------------------------------------------
 Center     Atomic      Atomic             Coordinates (Angstroms)
 Number     Number       Type             X           Y           Z
 ---------------------------------------------------------------------
      1          8           0       -4.706914   -1.593086   -0.340703
      2          1           0       -4.232721   -0.917243   -0.830578
      3          1           0       -5.490578   -1.208730    0.058974
      4          8           0       -4.705935   -4.325573    1.939198
      5          1           0       -5.355149   -4.773834    2.486174
      6          1           0       -4.314455   -3.449171    1.922985
      7          1           0       -4.706325   -3.235700    1.029842
 ---------------------------------------------------------------------
                    Distance matrix (angstroms):
                    1          2          3          4          5
     1  O    0.000000
     2  H    0.960000   0.000000
     3  H    0.960000   1.567952   0.000000
     4  O    3.558713   4.417273   3.723656   0.000000
     5  H    4.304487   5.209029   4.315044   0.960000   0.000000
     6  H    2.953534   3.741584   3.142830   0.960000   1.776220
     7  H    2.139293   3.010101   2.380387   1.419420   2.215340
                    6          7
     6  H    0.000000
     7  H    0.998417   0.000000
 Stoichiometry    H5O2(1+)
 Framework group  C1[X(H5O2)]
 Deg. of freedom    15
 Full point group                 C1      NOp   1
 Largest Abelian subgroup         C1      NOp   1
 Largest concise Abelian subgroup C1      NOp   1
                         Standard orientation:                         
 ---------------------------------------------------------------------
 Center     Atomic      Atomic             Coordinates (Angstroms)
 Number     Number       Type             X           Y           Z
 ---------------------------------------------------------------------
      1          8           0        1.755539   -0.018057   -0.063932
      2          1           0        2.595368   -0.449390    0.109959
      3          1           0        1.784595    0.883830    0.263718
      4          8           0       -1.802759   -0.067010   -0.040278
      5          1           0       -2.506491    0.584860   -0.078054
      6          1           0       -1.112211   -0.291278    0.587773
      7          1           0       -0.383504   -0.047485   -0.049713
 ---------------------------------------------------------------------
 Rotational constants (GHZ):    253.3263521      4.2286022      4.1944390
 Standard basis: 6-31G(d,p) (6D, 7F)
 There are    55 symmetry adapted basis functions of A   symmetry.
 Integral buffers will be    131072 words long.
 Raffenetti 2 integral format.
 Two-electron integral symmetry is turned on.
    55 basis functions,    91 primitive gaussians,    55 cartesian basis functions
    10 alpha electrons       10 beta electrons
       nuclear repulsion energy        38.9659135262 Hartrees.
 NAtoms=    7 NActive=    7 NUniq=    7 SFac= 1.00D+00 NAtFMM=   60 NAOKFM=F Big=F
 One-electron integrals computed using PRISM.
 NBasis=    55 RedAO= T  NBF=    55
 NBsUse=    55 1.00D-06 NBFU=    55
 Harris functional with IExCor=  402 diagonalized for initial guess.
 ExpMin= 1.61D-01 ExpMax= 5.48D+03 ExpMxC= 8.25D+02 IAcc=1 IRadAn=         1 AccDes= 0.00D+00
 HarFok:  IExCor=  402 AccDes= 0.00D+00 IRadAn=         1 IDoV= 1
 ScaDFX=  1.000000  1.000000  1.000000  1.000000
 FoFCou: FMM=F IPFlag=           0 FMFlag=      100000 FMFlg1=           0
         NFxFlg=           0 DoJE=T BraDBF=F KetDBF=T FulRan=T
         Omega=  0.000000  0.000000  1.000000  0.000000  0.000000 ICntrl=     500 IOpCl=  0
         NMat0=    1 NMatS0=    1 NMatT0=    0 NMatD0=    1 NMtDS0=    0 NMtDT0=    0
         I1Cent=           4 NGrid=           0.
 Petite list used in FoFCou.
 Initial guess orbital symmetries:
       Occupied  (A) (A) (A) (A) (A) (A) (A) (A) (A) (A)
       Virtual   (A) (A) (A) (A) (A) (A) (A) (A) (A) (A) (A) (A)
                 (A) (A) (A) (A) (A) (A) (A) (A) (A) (A) (A) (A)
                 (A) (A) (A) (A) (A) (A) (A) (A) (A) (A) (A) (A)
                 (A) (A) (A) (A) (A) (A) (A) (A) (A)
 The electronic state of the initial guess is 1-A.
 Requested convergence on RMS density matrix=1.00D-08 within 128 cycles.
 Requested convergence on MAX density matrix=1.00D-06.
 Requested convergence on             energy=1.00D-06.
 No special actions if energy rises.
 Keep R1 ints in memory in canonical form, NReq=2145443.
 Integral accuracy reduced to 1.0D-05 until final iterations.
 EnCoef did     4 forward-backward iterations
 EnCoef did     2 forward-backward iterations
 Initial convergence to 1.0D-05 achieved.  Increase integral accuracy.
 SCF Done:  E(RB3LYP) =  -152.998681242     A.U. after   15 cycles
             Convg  =    0.9641D-08             -V/T =  2.0092

 **********************************************************************

            Population analysis using the SCF density.

 **********************************************************************

 Orbital symmetries:
       Occupied  (A) (A) (A) (A) (A) (A) (A) (A) (A) (A)
       Virtual   (A) (A) (A) (A) (A) (A) (A) (A) (A) (A) (A) (A)
                 (A) (A) (A) (A) (A) (A) (A) (A) (A) (A) (A) (A)
                 (A) (A) (A) (A) (A) (A) (A) (A) (A) (A) (A) (A)
                 (A) (A) (A) (A) (A) (A) (A) (A) (A)
 The electronic state is 1-A.
 Alpha  occ. eigenvalues --  -19.51339 -19.38344  -1.35973  -1.22851  -0.95273
 Alpha  occ. eigenvalues --   -0.75687  -0.68355  -0.66633  -0.60859  -0.52784
 Alpha virt. eigenvalues --   -0.39049  -0.15434  -0.11055  -0.09320  -0.03289
 Alpha virt. eigenvalues --    0.29230   0.46344   0.55244   0.56106   0.58189
 Alpha virt. eigenvalues --    0.60995   0.63621   0.66511   0.77435   0.78968
 Alpha virt. eigenvalues --    0.82311   0.92936   0.98171   1.20391   1.29425
 Alpha virt. eigenvalues --    1.32244   1.36018   1.37946   1.44554   1.49167
 Alpha virt. eigenvalues --    1.73175   1.90148   1.95078   2.01553   2.03348
 Alpha virt. eigenvalues --    2.11920   2.25943   2.34309   2.41685   2.46122
 Alpha virt. eigenvalues --    2.47946   2.71020   2.83037   2.99962   3.10589
 Alpha virt. eigenvalues --    3.11759   3.18725   3.31056   3.58981   3.81315
          Condensed to atoms (all electrons):
              1          2          3          4          5          6
     1  O    7.907982   0.306166   0.293652  -0.003089   0.000037   0.002952
     2  H    0.306166   0.326467  -0.020765   0.000044   0.000000   0.000040
     3  H    0.293652  -0.020765   0.371194   0.000296  -0.000004   0.000100
     4  O   -0.003089   0.000044   0.000296   7.757963   0.292925   0.255284
     5  H    0.000037   0.000000  -0.000004   0.292925   0.258913  -0.010188
     6  H    0.002952   0.000040   0.000100   0.255284  -0.010188   0.374232
     7  H    0.065419  -0.002061  -0.006026   0.098539   0.000286   0.010710
              7
     1  O    0.065419
     2  H   -0.002061
     3  H   -0.006026
     4  O    0.098539
     5  H    0.000286
     6  H    0.010710
     7  H    0.434619
 Mulliken atomic charges:
              1
     1  O   -0.573118
     2  H    0.390110
     3  H    0.361555
     4  O   -0.401962
     5  H    0.458031
     6  H    0.366870
     7  H    0.398515
 Sum of Mulliken atomic charges =   1.00000
 Mulliken charges with hydrogens summed into heavy atoms:
              1
     1  O    0.178546
     4  O    0.821454
 Sum of Mulliken charges with hydrogens summed into heavy atoms =   1.00000
 Electronic spatial extent (au):  <R**2>=            260.1024
 Charge=              1.0000 electrons
 Dipole moment (field-independent basis, Debye):
    X=             -1.5079    Y=              1.7595    Z=              1.9773  Tot=              3.0462
 Quadrupole moment (field-independent basis, Debye-Ang):
   XX=              9.7598   YY=             -9.8549   ZZ=            -12.6900
   XY=             -3.0854   XZ=              1.1254   YZ=             -0.1138
 Traceless Quadrupole moment (field-independent basis, Debye-Ang):
   XX=             14.0215   YY=             -5.5932   ZZ=             -8.4283
   XY=             -3.0854   XZ=              1.1254   YZ=             -0.1138
 Octapole moment (field-independent basis, Debye-Ang**2):
  XXX=             -0.4342  YYY=              2.4714  ZZZ=              1.4011  XYY=              1.6942
  XXY=              8.7080  XXZ=              4.1072  XZZ=             -1.4196  YZZ=              0.1566
  YYZ=              0.8186  XYZ=              1.6870
 Hexadecapole moment (field-independent basis, Debye-Ang**3):
 XXXX=            -68.6460 YYYY=             -9.9252 ZZZZ=            -10.4067 XXXY=            -36.9150
 XXXZ=             12.1629 YYYX=             -0.6763 YYYZ=              0.2996 ZZZX=              0.2124
 ZZZY=             -0.1761 XXYY=            -29.5978 XXZZ=            -43.7445 YYZZ=             -3.5530
 XXYZ=             -0.4981 YYXZ=              1.0895 ZZXY=             -0.0978
 N-N= 3.896591352625D+01 E-N=-4.333390361788D+02  KE= 1.516038674649D+02
 Calling FoFJK, ICntrl=      2127 FMM=F ISym2X=0 I1Cent= 0 IOpClX= 0 NMat=1 NMatS=1 NMatT=0.
 ***** Axes restored to original set *****
 -------------------------------------------------------------------
 Center     Atomic                   Forces (Hartrees/Bohr)
 Number     Number              X              Y              Z
 -------------------------------------------------------------------
      1        8          -0.012432692   -0.037671586    0.024162141
      2        1           0.010676572    0.005507869    0.000476761
      3        1          -0.004743027    0.011437186   -0.004447051
      4        8           0.051761336    0.021531737   -0.094784926
      5        1          -0.033589529    0.023060955    0.014827614
      6        1           0.036777018    0.008663246    0.098869794
      7        1          -0.048449678   -0.032529408   -0.039104332
 -------------------------------------------------------------------
 Cartesian Forces:  Max     0.098869794 RMS     0.039412132

 GradGradGradGradGradGradGradGradGradGradGradGradGradGradGradGradGradGrad
 Berny optimization.
 Internal  Forces:  Max     0.131601874 RMS     0.039382474
 Search for a local minimum.
 Step number   1 out of a maximum of   27
 All quantities printed in internal units (Hartrees-Bohrs-Radians)
 Mixed Optimization -- RFO/linear search
 Second derivative matrix not updated -- first step.
 The second derivative matrix:
                          R1        R2        R3        R4        R5
           R1           0.55473
           R2           0.00000   0.55473
           R3           0.00000   0.00000   0.03449
           R4           0.00000   0.00000   0.00000   0.55473
           R5           0.00000   0.00000   0.00000   0.00000   0.55473
           R6           0.00000   0.00000   0.00000   0.00000   0.00000
           A1           0.00000   0.00000   0.00000   0.00000   0.00000
           A2           0.00000   0.00000   0.00000   0.00000   0.00000
           A3           0.00000   0.00000   0.00000   0.00000   0.00000
           A4           0.00000   0.00000   0.00000   0.00000   0.00000
           A5           0.00000   0.00000   0.00000   0.00000   0.00000
           A6           0.00000   0.00000   0.00000   0.00000   0.00000
           D1           0.00000   0.00000   0.00000   0.00000   0.00000
           D2           0.00000   0.00000   0.00000   0.00000   0.00000
           D3           0.00000   0.00000   0.00000   0.00000   0.00000
           D4           0.00000   0.00000   0.00000   0.00000   0.00000
           D5           0.00000   0.00000   0.00000   0.00000   0.00000
                          R6        A1        A2        A3        A4
           R6           0.17925
           A1           0.00000   0.16000
           A2           0.00000   0.00000   0.16000
           A3           0.00000   0.00000   0.00000   0.16000
           A4           0.00000   0.00000   0.00000   0.00000   0.16000
           A5           0.00000   0.00000   0.00000   0.00000   0.00000
           A6           0.00000   0.00000   0.00000   0.00000   0.00000
           D1           0.00000   0.00000   0.00000   0.00000   0.00000
           D2           0.00000   0.00000   0.00000   0.00000   0.00000
           D3           0.00000   0.00000   0.00000   0.00000   0.00000
           D4           0.00000   0.00000   0.00000   0.00000   0.00000
           D5           0.00000   0.00000   0.00000   0.00000   0.00000
                          A5        A6        D1        D2        D3
           A5           0.16000
           A6           0.00000   0.16000
           D1           0.00000   0.00000   0.01558
           D2           0.00000   0.00000   0.00000   0.00230
           D3           0.00000   0.00000   0.00000   0.00000   0.00230
           D4           0.00000   0.00000   0.00000   0.00000   0.00000
           D5           0.00000   0.00000   0.00000   0.00000   0.00000
                          D4        D5
           D4           0.01558
           D5           0.00000   0.00230
 ITU=  0
     Eigenvalues ---    0.00230   0.00230   0.01558   0.01683   0.03449
     Eigenvalues ---    0.12759   0.16000   0.16000   0.16000   0.16000
     Eigenvalues ---    0.17925   0.55473   0.55473   0.55473   0.55473
 RFO step:  Lambda=-1.00999200D-01 EMin= 2.30000000D-03
 Linear search not attempted -- first point.
 Maximum step size (   0.300) exceeded in Quadratic search.
    -- Step size scaled by   0.493
 Iteration  1 RMS(Cart)=  0.14579322 RMS(Int)=  0.01477270
 Iteration  2 RMS(Cart)=  0.03517572 RMS(Int)=  0.00043870
 Iteration  3 RMS(Cart)=  0.00052348 RMS(Int)=  0.00007357
 Iteration  4 RMS(Cart)=  0.00000022 RMS(Int)=  0.00007357
 Variable       Old X    -DE/DX   Delta X   Delta X   Delta X     New X
                                 (Linear)    (Quad)   (Total)
    R1        1.81414   0.00891   0.00000   0.00670   0.00670   1.82084
    R2        1.81414   0.00660   0.00000   0.00496   0.00496   1.81910
    R3        4.04268  -0.02885   0.00000  -0.10498  -0.10498   3.93769
    R4        1.81414   0.02039   0.00000   0.01534   0.01534   1.82947
    R5        1.81414  -0.04947   0.00000  -0.03720  -0.03720   1.77694
    R6        1.88674   0.02710   0.00000   0.04768   0.04768   1.93441
    A1        1.91114  -0.00493   0.00000  -0.00775  -0.00762   1.90351
    A2        2.62062  -0.01291   0.00000  -0.02730  -0.02735   2.59327
    A3        1.61173   0.01676   0.00000   0.03244   0.03254   1.64427
    A4        2.36267  -0.05583   0.00000  -0.10546  -0.10546   2.25721
    A5        1.62106  -0.13160   0.00000  -0.24862  -0.24862   1.37244
    A6        2.39998  -0.00454   0.00000  -0.00858  -0.00858   2.39139
    D1       -2.78014   0.00588   0.00000   0.01296   0.01277  -2.76737
    D2        0.83190   0.00158   0.00000   0.00115   0.00103   0.83293
    D3       -1.57583  -0.00309   0.00000  -0.00837  -0.00825  -1.58408
    D4       -2.02580   0.02897   0.00000   0.12254   0.12254  -1.90326
    D5        3.14159  -0.00012   0.00000  -0.00059  -0.00059   3.14101
         Item               Value     Threshold  Converged?
 Maximum Force            0.131602     0.000450     NO 
 RMS     Force            0.039382     0.000300     NO 
 Maximum Displacement     0.367063     0.001800     NO 
 RMS     Displacement     0.178971     0.001200     NO 
 Predicted change in Energy=-4.282933D-02
 GradGradGradGradGradGradGradGradGradGradGradGradGradGradGradGradGradGrad

                          Input orientation:                          
 ---------------------------------------------------------------------
 Center     Atomic      Atomic             Coordinates (Angstroms)
 Number     Number       Type             X           Y           Z
 ---------------------------------------------------------------------
      1          8           0       -4.737828   -1.680386   -0.277302
      2          1           0       -4.270411   -1.013941   -0.792851
      3          1           0       -5.516490   -1.279646    0.122375
      4          8           0       -4.669779   -4.244028    1.842377
      5          1           0       -5.451649   -4.595916    2.291933
      6          1           0       -4.209548   -3.437568    1.990710
      7          1           0       -4.656371   -3.251852    1.088650
 ---------------------------------------------------------------------
                    Distance matrix (angstroms):
                    1          2          3          4          5
     1  O    0.000000
     2  H    0.963545   0.000000
     3  H    0.962626   1.568742   0.000000
     4  O    3.327151   4.187766   3.530282   0.000000
     5  H    3.951054   4.872551   3.963437   0.968115   0.000000
     6  H    2.917301   3.691325   3.139331   0.940316   1.724912
     7  H    2.083738   2.949111   2.358620   1.246073   1.971513
                    6          7
     6  H    0.000000
     7  H    1.023647   0.000000
 Stoichiometry    H5O2(1+)
 Framework group  C1[X(H5O2)]
 Deg. of freedom    15
 Full point group                 C1      NOp   1
 Largest Abelian subgroup         C1      NOp   1
 Largest concise Abelian subgroup C1      NOp   1
                         Standard orientation:                         
 ---------------------------------------------------------------------
 Center     Atomic      Atomic             Coordinates (Angstroms)
 Number     Number       Type             X           Y           Z
 ---------------------------------------------------------------------
      1          8           0        1.641934   -0.008913   -0.065764
      2          1           0        2.483076   -0.466200    0.042801
      3          1           0        1.697747    0.855781    0.353566
      4          8           0       -1.684658   -0.068980   -0.055148
      5          1           0       -2.240658    0.723396   -0.071020
      6          1           0       -1.158629   -0.413988    0.643748
      7          1           0       -0.439746   -0.075848   -0.001792
 ---------------------------------------------------------------------
 Rotational constants (GHZ):    213.4853648      4.8182288      4.7690686
 Standard basis: 6-31G(d,p) (6D, 7F)
 There are    55 symmetry adapted basis functions of A   symmetry.
 Integral buffers will be    131072 words long.
 Raffenetti 2 integral format.
 Two-electron integral symmetry is turned on.
    55 basis functions,    91 primitive gaussians,    55 cartesian basis functions
    10 alpha electrons       10 beta electrons
       nuclear repulsion energy        40.3944607752 Hartrees.
 NAtoms=    7 NActive=    7 NUniq=    7 SFac= 1.00D+00 NAtFMM=   60 NAOKFM=F Big=F
 One-electron integrals computed using PRISM.
 NBasis=    55 RedAO= T  NBF=    55
 NBsUse=    55 1.00D-06 NBFU=    55
 Initial guess read from the read-write file.
 B after Tr=     0.000000    0.000000    0.000000
         Rot=    1.000000    0.000000    0.000000    0.000000 Ang=   0.00 deg.
 Initial guess orbital symmetries:
       Occupied  (A) (A) (A) (A) (A) (A) (A) (A) (A) (A)
       Virtual   (A) (A) (A) (A) (A) (A) (A) (A) (A) (A) (A) (A)
                 (A) (A) (A) (A) (A) (A) (A) (A) (A) (A) (A) (A)
                 (A) (A) (A) (A) (A) (A) (A) (A) (A) (A) (A) (A)
                 (A) (A) (A) (A) (A) (A) (A) (A) (A)
 Harris functional with IExCor=  402 diagonalized for initial guess.
 ExpMin= 1.61D-01 ExpMax= 5.48D+03 ExpMxC= 8.25D+02 IAcc=1 IRadAn=         1 AccDes= 0.00D+00
 HarFok:  IExCor=  402 AccDes= 0.00D+00 IRadAn=         1 IDoV= 1
 ScaDFX=  1.000000  1.000000  1.000000  1.000000
 FoFCou: FMM=F IPFlag=           0 FMFlag=      100000 FMFlg1=           0
         NFxFlg=           0 DoJE=T BraDBF=F KetDBF=T FulRan=T
         Omega=  0.000000  0.000000  1.000000  0.000000  0.000000 ICntrl=     500 IOpCl=  0
         NMat0=    1 NMatS0=    1 NMatT0=    0 NMatD0=    1 NMtDS0=    0 NMtDT0=    0
         I1Cent=           4 NGrid=           0.
 Petite list used in FoFCou.
 Requested convergence on RMS density matrix=1.00D-08 within 128 cycles.
 Requested convergence on MAX density matrix=1.00D-06.
 Requested convergence on             energy=1.00D-06.
 No special actions if energy rises.
 Keep R1 ints in memory in canonical form, NReq=2145151.
 Integral accuracy reduced to 1.0D-05 until final iterations.
 Initial convergence to 1.0D-05 achieved.  Increase integral accuracy.
 SCF Done:  E(RB3LYP) =  -153.050298847     A.U. after   12 cycles
             Convg  =    0.6772D-08             -V/T =  2.0091
 Calling FoFJK, ICntrl=      2127 FMM=F ISym2X=0 I1Cent= 0 IOpClX= 0 NMat=1 NMatS=1 NMatT=0.
 ***** Axes restored to original set *****
 -------------------------------------------------------------------
 Center     Atomic                   Forces (Hartrees/Bohr)
 Number     Number              X              Y              Z
 -------------------------------------------------------------------
      1        8          -0.007841435   -0.030016229    0.025105218
      2        1           0.005711452    0.002217987    0.001368480
      3        1          -0.002353398    0.010393184   -0.006878886
      4        8           0.026411473    0.025074354   -0.092321338
      5        1          -0.018215422    0.021556877    0.009798380
      6        1           0.049190042    0.018096379    0.104643988
      7        1          -0.052902712   -0.047322552   -0.041715842
 -------------------------------------------------------------------
 Cartesian Forces:  Max     0.104643988 RMS     0.039647786

 GradGradGradGradGradGradGradGradGradGradGradGradGradGradGradGradGradGrad
 Berny optimization.
 Using GEDIIS/GDIIS optimizer.
 Internal  Forces:  Max     0.152994636 RMS     0.041335002
 Search for a local minimum.
 Step number   2 out of a maximum of   27
 All quantities printed in internal units (Hartrees-Bohrs-Radians)
 Mixed Optimization -- RFO/linear search
 Update second derivatives using D2CorX and points    1    2
 DE= -5.16D-02 DEPred=-4.28D-02 R= 1.21D+00
 SS=  1.41D+00  RLast= 3.24D-01 DXNew= 5.0454D-01 9.7259D-01
 Trust test= 1.21D+00 RLast= 3.24D-01 DXMaxT set to 5.05D-01
 The second derivative matrix:
                          R1        R2        R3        R4        R5
           R1           0.53887
           R2          -0.00973   0.54875
           R3           0.00948   0.00586   0.02868
           R4          -0.02727  -0.01680   0.01652   0.50752
           R5           0.05703   0.03523  -0.03484   0.09921   0.34567
           R6           0.01361   0.00792  -0.00687   0.02149  -0.04240
           A1          -0.00342  -0.00202   0.00183  -0.00555   0.01116
           A2           0.00780   0.00488  -0.00493   0.01382  -0.02947
           A3          -0.00111  -0.00086   0.00119  -0.00270   0.00673
           A4           0.03907   0.02423  -0.02416   0.06840  -0.14474
           A5          -0.04904  -0.02820   0.02379  -0.07598   0.14774
           A6          -0.00394  -0.00233   0.00210  -0.00639   0.01287
           D1          -0.00638  -0.00387   0.00367  -0.01076   0.02222
           D2           0.00084   0.00051  -0.00048   0.00141  -0.00290
           D3          -0.00060  -0.00036   0.00034  -0.00100   0.00207
           D4          -0.02568  -0.01560   0.01490  -0.04348   0.09003
           D5           0.00007   0.00005  -0.00004   0.00013  -0.00026
                          R6        A1        A2        A3        A4
           R6           0.15704
           A1           0.00475   0.15895
           A2          -0.00441   0.00129   0.15567
           A3          -0.00349   0.00053   0.00151   0.15805
           A4          -0.02658   0.00722  -0.02072   0.00565   0.05923
           A5           0.08810  -0.01849   0.01412   0.01599   0.09046
           A6           0.00544  -0.00120   0.00149   0.00059   0.00834
           D1           0.00664  -0.00158   0.00289   0.00005   0.01495
           D2          -0.00090   0.00021  -0.00037  -0.00002  -0.00194
           D3           0.00066  -0.00015   0.00026   0.00002   0.00138
           D4           0.02572  -0.00617   0.01183  -0.00023   0.06081
           D5          -0.00008   0.00002  -0.00003   0.00000  -0.00017
                          A5        A6        D1        D2        D3
           A5          -0.19265
           A6          -0.02117   0.15862
           D1          -0.02481  -0.00181   0.01288
           D2           0.00337   0.00024   0.00036   0.00225
           D3          -0.00248  -0.00018  -0.00026   0.00003   0.00228
           D4          -0.09549  -0.00709  -0.01074   0.00142  -0.00102
           D5           0.00029   0.00002   0.00003   0.00000   0.00000
                          D4        D5
           D4          -0.02729
           D5           0.00013   0.00230
 ITU=  1  0
 Use linear search instead of GDIIS.
     Eigenvalues ---   -0.40173   0.00229   0.00230   0.00272   0.01737
     Eigenvalues ---    0.03081   0.07702   0.13178   0.16000   0.16000
     Eigenvalues ---    0.17824   0.40134   0.55450   0.55473   0.55473
 RFO step:  Lambda=-4.19836506D-01 EMin=-4.01734206D-01
 Skip linear search -- no minimum in search direction.
 Maximum step size (   0.505) exceeded in Quadratic search.
    -- Step size scaled by   0.491
 Iteration  1 RMS(Cart)=  0.08354957 RMS(Int)=  0.06857417
 Iteration  2 RMS(Cart)=  0.13730880 RMS(Int)=  0.02150496
 Iteration  3 RMS(Cart)=  0.06332973 RMS(Int)=  0.00150826
 Iteration  4 RMS(Cart)=  0.00168659 RMS(Int)=  0.00013052
 Iteration  5 RMS(Cart)=  0.00000113 RMS(Int)=  0.00013051
 Iteration  6 RMS(Cart)=  0.00000000 RMS(Int)=  0.00013051
 Variable       Old X    -DE/DX   Delta X   Delta X   Delta X     New X
                                 (Linear)    (Quad)   (Total)
    R1        1.82084   0.00357   0.00000  -0.03590  -0.03590   1.78493
    R2        1.81910   0.00337   0.00000  -0.02055  -0.02055   1.79855
    R3        3.93769  -0.02580   0.00000   0.01079   0.01079   3.94848
    R4        1.82947   0.01143   0.00000  -0.05521  -0.05521   1.77426
    R5        1.77694  -0.03099   0.00000   0.10675   0.10675   1.88369
    R6        1.93441   0.03280   0.00000   0.11020   0.11020   2.04462
    A1        1.90351  -0.00627   0.00000  -0.02577  -0.02601   1.87750
    A2        2.59327  -0.01053   0.00000   0.01629   0.01634   2.60961
    A3        1.64427   0.01686   0.00000   0.02383   0.02363   1.66790
    A4        2.25721  -0.04343   0.00000   0.08801   0.08801   2.34523
    A5        1.37244  -0.15299   0.00000  -0.46480  -0.46480   0.90764
    A6        2.39139  -0.00609   0.00000  -0.02673  -0.02673   2.36466
    D1       -2.76737   0.00361   0.00000  -0.02378  -0.02346  -2.79084
    D2        0.83293   0.00188   0.00000   0.01088   0.01109   0.84402
    D3       -1.58408  -0.00331   0.00000  -0.01123  -0.01144  -1.59552
    D4       -1.90326   0.01994   0.00000  -0.11574  -0.11574  -2.01900
    D5        3.14101  -0.00010   0.00000   0.00032   0.00032   3.14132
         Item               Value     Threshold  Converged?
 Maximum Force            0.152995     0.000450     NO 
 RMS     Force            0.041335     0.000300     NO 
 Maximum Displacement     0.616101     0.001800     NO 
 RMS     Displacement     0.260924     0.001200     NO 
 Predicted change in Energy=-1.128900D-01
 GradGradGradGradGradGradGradGradGradGradGradGradGradGradGradGradGradGrad

                          Input orientation:                          
 ---------------------------------------------------------------------
 Center     Atomic      Atomic             Coordinates (Angstroms)
 Number     Number       Type             X           Y           Z
 ---------------------------------------------------------------------
      1          8           0       -4.773753   -1.785485   -0.207661
      2          1           0       -4.360548   -1.167586   -0.790438
      3          1           0       -5.506678   -1.342744    0.207825
      4          8           0       -4.690845   -4.062415    1.717928
      5          1           0       -5.522497   -4.420732    1.965906
      6          1           0       -4.049299   -3.429794    2.144343
      7          1           0       -4.608456   -3.294582    1.227988
 ---------------------------------------------------------------------
                    Distance matrix (angstroms):
                    1          2          3          4          5
     1  O    0.000000
     2  H    0.944545   0.000000
     3  H    0.951749   1.529974   0.000000
     4  O    2.983149   3.844611   3.215992   0.000000
     5  H    3.497076   4.419335   3.544730   0.938898   0.000000
     6  H    2.959816   3.718522   3.198411   0.996806   1.784409
     7  H    2.089447   2.942723   2.378489   0.914547   1.627332
                    6          7
     6  H    0.000000
     7  H    1.081964   0.000000
 Stoichiometry    H5O2(1+)
 Framework group  C1[X(H5O2)]
 Deg. of freedom    15
 Full point group                 C1      NOp   1
 Largest Abelian subgroup         C1      NOp   1
 Largest concise Abelian subgroup C1      NOp   1
                         Standard orientation:                         
 ---------------------------------------------------------------------
 Center     Atomic      Atomic             Coordinates (Angstroms)
 Number     Number       Type             X           Y           Z
 ---------------------------------------------------------------------
      1          8           0        1.486389    0.004721   -0.061812
      2          1           0        2.327916   -0.416562   -0.142560
      3          1           0        1.566494    0.681687    0.602361
      4          8           0       -1.496543   -0.029922   -0.071447
      5          1           0       -1.916857    0.809123   -0.041948
      6          1           0       -1.300737   -0.735639    0.604752
      7          1           0       -0.595585   -0.137003    0.043465
 ---------------------------------------------------------------------
 Rotational constants (GHZ):    183.7909637      5.8946958      5.8261828
 Standard basis: 6-31G(d,p) (6D, 7F)
 There are    55 symmetry adapted basis functions of A   symmetry.
 Integral buffers will be    131072 words long.
 Raffenetti 2 integral format.
 Two-electron integral symmetry is turned on.
    55 basis functions,    91 primitive gaussians,    55 cartesian basis functions
    10 alpha electrons       10 beta electrons
       nuclear repulsion energy        43.1880085416 Hartrees.
 NAtoms=    7 NActive=    7 NUniq=    7 SFac= 1.00D+00 NAtFMM=   60 NAOKFM=F Big=F
 One-electron integrals computed using PRISM.
 NBasis=    55 RedAO= T  NBF=    55
 NBsUse=    55 1.00D-06 NBFU=    55
 Initial guess read from the read-write file.
 B after Tr=     0.000000    0.000000    0.000000
         Rot=    1.000000    0.000000    0.000000    0.000000 Ang=   0.00 deg.
 Initial guess orbital symmetries:
       Occupied  (A) (A) (A) (A) (A) (A) (A) (A) (A) (A)
       Virtual   (A) (A) (A) (A) (A) (A) (A) (A) (A) (A) (A) (A)
                 (A) (A) (A) (A) (A) (A) (A) (A) (A) (A) (A) (A)
                 (A) (A) (A) (A) (A) (A) (A) (A) (A) (A) (A) (A)
                 (A) (A) (A) (A) (A) (A) (A) (A) (A)
 Harris functional with IExCor=  402 diagonalized for initial guess.
 ExpMin= 1.61D-01 ExpMax= 5.48D+03 ExpMxC= 8.25D+02 IAcc=1 IRadAn=         1 AccDes= 0.00D+00
 HarFok:  IExCor=  402 AccDes= 0.00D+00 IRadAn=         1 IDoV= 1
 ScaDFX=  1.000000  1.000000  1.000000  1.000000
 FoFCou: FMM=F IPFlag=           0 FMFlag=      100000 FMFlg1=           0
         NFxFlg=           0 DoJE=T BraDBF=F KetDBF=T FulRan=T
         Omega=  0.000000  0.000000  1.000000  0.000000  0.000000 ICntrl=     500 IOpCl=  0
         NMat0=    1 NMatS0=    1 NMatT0=    0 NMatD0=    1 NMtDS0=    0 NMtDT0=    0
         I1Cent=           4 NGrid=           0.
 Petite list used in FoFCou.
 Requested convergence on RMS density matrix=1.00D-08 within 128 cycles.
 Requested convergence on MAX density matrix=1.00D-06.
 Requested convergence on             energy=1.00D-06.
 No special actions if energy rises.
 Keep R1 ints in memory in canonical form, NReq=2144991.
 Integral accuracy reduced to 1.0D-05 until final iterations.
 Initial convergence to 1.0D-05 achieved.  Increase integral accuracy.
 SCF Done:  E(RB3LYP) =  -153.091739542     A.U. after   12 cycles
             Convg  =    0.2808D-08             -V/T =  2.0069
 Calling FoFJK, ICntrl=      2127 FMM=F ISym2X=0 I1Cent= 0 IOpClX= 0 NMat=1 NMatS=1 NMatT=0.
 ***** Axes restored to original set *****
 -------------------------------------------------------------------
 Center     Atomic                   Forces (Hartrees/Bohr)
 Number     Number              X              Y              Z
 -------------------------------------------------------------------
      1        8          -0.002460608   -0.036194372    0.028209668
      2        1           0.011917291    0.014388383   -0.013170360
      3        1          -0.011680686    0.014165531   -0.001761381
      4        8           0.084861678   -0.014495934    0.012799255
      5        1          -0.038369937   -0.001487337    0.025928679
      6        1           0.009173338   -0.042412181    0.078981783
      7        1          -0.053441076    0.066035909   -0.130987645
 -------------------------------------------------------------------
 Cartesian Forces:  Max     0.130987645 RMS     0.046389817

 GradGradGradGradGradGradGradGradGradGradGradGradGradGradGradGradGradGrad
 Berny optimization.
 Using GEDIIS/GDIIS optimizer.
 Internal  Forces:  Max     0.135757187 RMS     0.044382077
 Search for a local minimum.
 Step number   3 out of a maximum of   27
 All quantities printed in internal units (Hartrees-Bohrs-Radians)
 Mixed Optimization -- RFO/linear search
 Update second derivatives using D2CorX and points    2    3
 DE= -4.14D-02 DEPred=-1.13D-01 R= 3.67D-01
 Trust test= 3.67D-01 RLast= 5.18D-01 DXMaxT set to 5.05D-01
 The second derivative matrix:
                          R1        R2        R3        R4        R5
           R1           0.54639
           R2          -0.00519   0.55149
           R3           0.00730   0.00451   0.03435
           R4          -0.01495  -0.00936   0.01252   0.52772
           R5           0.04179   0.02595  -0.02043   0.07339   0.39644
           R6           0.02496   0.01459   0.01192   0.03821  -0.02157
           A1          -0.00171  -0.00098   0.00011  -0.00265   0.00527
           A2           0.00589   0.00371  -0.00198   0.01050  -0.02083
           A3          -0.00212  -0.00147   0.00147  -0.00436   0.00876
           A4           0.02630   0.01644  -0.00848   0.04648  -0.09504
           A5           0.02566   0.01674   0.01987   0.04487   0.03143
           A6          -0.00218  -0.00126  -0.00015  -0.00337   0.00584
           D1          -0.00310  -0.00186  -0.00042  -0.00512   0.00932
           D2           0.00043   0.00026   0.00010   0.00070  -0.00116
           D3          -0.00023  -0.00013  -0.00003  -0.00037   0.00078
           D4          -0.01381  -0.00833  -0.00157  -0.02292   0.04007
           D5           0.00007   0.00004   0.00003   0.00011  -0.00011
                          R6        A1        A2        A3        A4
           R6           0.27094
           A1           0.00195   0.15964
           A2           0.00324   0.00027   0.15729
           A3          -0.00506   0.00030   0.00176   0.15819
           A4           0.00674   0.00141  -0.01176   0.00734   0.10947
           A5           0.27845  -0.00586   0.00361   0.00590   0.00583
           A6           0.00041  -0.00038   0.00021   0.00036   0.00119
           D1          -0.00220  -0.00007   0.00055  -0.00039   0.00188
           D2           0.00050   0.00001  -0.00005   0.00004  -0.00016
           D3           0.00007   0.00000   0.00004  -0.00003   0.00012
           D4          -0.01351  -0.00030   0.00260  -0.00181   0.00960
           D5           0.00021   0.00000   0.00000   0.00000   0.00000
                          A5        A6        D1        D2        D3
           A5           0.61166
           A6          -0.00991   0.15964
           D1          -0.00327   0.00005   0.01628
           D2           0.00093  -0.00001  -0.00011   0.00232
           D3           0.00031   0.00000   0.00007  -0.00001   0.00231
           D4          -0.02336   0.00021   0.00259  -0.00041   0.00025
           D5           0.00047   0.00000  -0.00001   0.00000   0.00000
                          D4        D5
           D4           0.02521
           D5          -0.00006   0.00230
 ITU=  0  1  0
 Use linear search instead of GDIIS.
     Eigenvalues ---    0.00229   0.00230   0.00251   0.01600   0.03080
     Eigenvalues ---    0.07643   0.11003   0.13360   0.16000   0.16053
     Eigenvalues ---    0.40303   0.54140   0.55468   0.55473   0.79278
 RFO step:  Lambda=-8.36119310D-02 EMin= 2.28627528D-03
 Quartic linear search produced a step of -0.13175.
 Maximum step size (   0.505) exceeded in Quadratic search.
    -- Step size scaled by   0.771
 Iteration  1 RMS(Cart)=  0.10001488 RMS(Int)=  0.04398078
 Iteration  2 RMS(Cart)=  0.04641062 RMS(Int)=  0.00080835
 Iteration  3 RMS(Cart)=  0.00086908 RMS(Int)=  0.00047179
 Iteration  4 RMS(Cart)=  0.00000059 RMS(Int)=  0.00047179
 Variable       Old X    -DE/DX   Delta X   Delta X   Delta X     New X
                                 (Linear)    (Quad)   (Total)
    R1        1.78493   0.02275   0.00473   0.02863   0.03336   1.81830
    R2        1.79855   0.01482   0.00271   0.01966   0.02237   1.82092
    R3        3.94848  -0.01447  -0.00142  -0.15182  -0.15324   3.79524
    R4        1.77426   0.04140   0.00727   0.05711   0.06439   1.83865
    R5        1.88369  -0.03635  -0.01406  -0.07870  -0.09276   1.79093
    R6        2.04462   0.13576  -0.01452   0.39348   0.37896   2.42358
    A1        1.87750  -0.00603   0.00343  -0.02594  -0.02194   1.85556
    A2        2.60961  -0.00734  -0.00215  -0.04489  -0.04747   2.56213
    A3        1.66790   0.01424  -0.00311   0.08099   0.07828   1.74617
    A4        2.34523  -0.03576  -0.01160  -0.19455  -0.20615   2.13908
    A5        0.90764   0.09688   0.06124  -0.13310  -0.07186   0.83579
    A6        2.36466  -0.00749   0.00352  -0.03401  -0.03049   2.33418
    D1       -2.79084   0.00143   0.00309   0.00344   0.00518  -2.78566
    D2        0.84402   0.00238  -0.00146   0.01984   0.01758   0.86161
    D3       -1.59552  -0.00324   0.00151  -0.02976  -0.02745  -1.62297
    D4       -2.01900   0.00652   0.01525   0.06043   0.07568  -1.94332
    D5        3.14132   0.00012  -0.00004   0.00071   0.00067  -3.14119
         Item               Value     Threshold  Converged?
 Maximum Force            0.135757     0.000450     NO 
 RMS     Force            0.044382     0.000300     NO 
 Maximum Displacement     0.240084     0.001800     NO 
 RMS     Displacement     0.118833     0.001200     NO 
 Predicted change in Energy=-4.794034D-02
 GradGradGradGradGradGradGradGradGradGradGradGradGradGradGradGradGradGrad

                          Input orientation:                          
 ---------------------------------------------------------------------
 Center     Atomic      Atomic             Coordinates (Angstroms)
 Number     Number       Type             X           Y           Z
 ---------------------------------------------------------------------
      1          8           0       -4.790990   -1.797663   -0.194715
      2          1           0       -4.315097   -1.146371   -0.719285
      3          1           0       -5.573349   -1.350773    0.146904
      4          8           0       -4.619831   -4.064777    1.706378
      5          1           0       -5.506980   -4.310597    2.021356
      6          1           0       -4.038499   -3.505958    2.204314
      7          1           0       -4.667330   -3.327198    1.100941
 ---------------------------------------------------------------------
                    Distance matrix (angstroms):
                    1          2          3          4          5
     1  O    0.000000
     2  H    0.962200   0.000000
     3  H    0.963587   1.541189   0.000000
     4  O    2.963656   3.807072   3.272151   0.000000
     5  H    3.426143   4.352474   3.504074   0.972971   0.000000
     6  H    3.039713   3.767173   3.351645   0.947717   1.684445
     7  H    2.008356   2.862394   2.374303   0.955422   1.587215
                    6          7
     6  H    0.000000
     7  H    1.282503   0.000000
 Stoichiometry    H5O2(1+)
 Framework group  C1[X(H5O2)]
 Deg. of freedom    15
 Full point group                 C1      NOp   1
 Largest Abelian subgroup         C1      NOp   1
 Largest concise Abelian subgroup C1      NOp   1
                         Standard orientation:                         
 ---------------------------------------------------------------------
 Center     Atomic      Atomic             Coordinates (Angstroms)
 Number     Number       Type             X           Y           Z
 ---------------------------------------------------------------------
      1          8           0        1.473645   -0.003910   -0.058338
      2          1           0        2.289083   -0.513948   -0.030938
      3          1           0        1.626001    0.779373    0.481806
      4          8           0       -1.489581   -0.051770   -0.074358
      5          1           0       -1.843464    0.851835   -0.004088
      6          1           0       -1.409813   -0.627916    0.673880
      7          1           0       -0.534313   -0.043905   -0.059090
 ---------------------------------------------------------------------
 Rotational constants (GHZ):    177.2284216      5.9667711      5.8810285
 Standard basis: 6-31G(d,p) (6D, 7F)
 There are    55 symmetry adapted basis functions of A   symmetry.
 Integral buffers will be    131072 words long.
 Raffenetti 2 integral format.
 Two-electron integral symmetry is turned on.
    55 basis functions,    91 primitive gaussians,    55 cartesian basis functions
    10 alpha electrons       10 beta electrons
       nuclear repulsion energy        42.9938135882 Hartrees.
 NAtoms=    7 NActive=    7 NUniq=    7 SFac= 1.00D+00 NAtFMM=   60 NAOKFM=F Big=F
 One-electron integrals computed using PRISM.
 NBasis=    55 RedAO= T  NBF=    55
 NBsUse=    55 1.00D-06 NBFU=    55
 Initial guess read from the read-write file.
 B after Tr=     0.000000    0.000000    0.000000
         Rot=    1.000000    0.000000    0.000000    0.000000 Ang=   0.00 deg.
 Initial guess orbital symmetries:
       Occupied  (A) (A) (A) (A) (A) (A) (A) (A) (A) (A)
       Virtual   (A) (A) (A) (A) (A) (A) (A) (A) (A) (A) (A) (A)
                 (A) (A) (A) (A) (A) (A) (A) (A) (A) (A) (A) (A)
                 (A) (A) (A) (A) (A) (A) (A) (A) (A) (A) (A) (A)
                 (A) (A) (A) (A) (A) (A) (A) (A) (A)
 Harris functional with IExCor=  402 diagonalized for initial guess.
 ExpMin= 1.61D-01 ExpMax= 5.48D+03 ExpMxC= 8.25D+02 IAcc=1 IRadAn=         1 AccDes= 0.00D+00
 HarFok:  IExCor=  402 AccDes= 0.00D+00 IRadAn=         1 IDoV= 1
 ScaDFX=  1.000000  1.000000  1.000000  1.000000
 FoFCou: FMM=F IPFlag=           0 FMFlag=      100000 FMFlg1=           0
         NFxFlg=           0 DoJE=T BraDBF=F KetDBF=T FulRan=T
         Omega=  0.000000  0.000000  1.000000  0.000000  0.000000 ICntrl=     500 IOpCl=  0
         NMat0=    1 NMatS0=    1 NMatT0=    0 NMatD0=    1 NMtDS0=    0 NMtDT0=    0
         I1Cent=           4 NGrid=           0.
 Petite list used in FoFCou.
 Requested convergence on RMS density matrix=1.00D-08 within 128 cycles.
 Requested convergence on MAX density matrix=1.00D-06.
 Requested convergence on             energy=1.00D-06.
 No special actions if energy rises.
 Keep R1 ints in memory in canonical form, NReq=2144845.
 Integral accuracy reduced to 1.0D-05 until final iterations.
 Initial convergence to 1.0D-05 achieved.  Increase integral accuracy.
 SCF Done:  E(RB3LYP) =  -153.140515935     A.U. after   11 cycles
             Convg  =    0.6063D-08             -V/T =  2.0079
 Calling FoFJK, ICntrl=      2127 FMM=F ISym2X=0 I1Cent= 0 IOpClX= 0 NMat=1 NMatS=1 NMatT=0.
 ***** Axes restored to original set *****
 -------------------------------------------------------------------
 Center     Atomic                   Forces (Hartrees/Bohr)
 Number     Number              X              Y              Z
 -------------------------------------------------------------------
      1        8          -0.005569726   -0.017749568    0.019844311
      2        1           0.004714168    0.001011423   -0.001631274
      3        1          -0.002225763    0.006975521   -0.005503992
      4        8           0.005417835   -0.012607053   -0.017317391
      5        1          -0.002343413    0.001373462    0.014914300
      6        1           0.023978009   -0.004893645    0.063167758
      7        1          -0.023971111    0.025889862   -0.073473712
 -------------------------------------------------------------------
 Cartesian Forces:  Max     0.073473712 RMS     0.024688555

 GradGradGradGradGradGradGradGradGradGradGradGradGradGradGradGradGradGrad
 Berny optimization.
 Using GEDIIS/GDIIS optimizer.
 Internal  Forces:  Max     0.067787510 RMS     0.019455845
 Search for a local minimum.
 Step number   4 out of a maximum of   27
 All quantities printed in internal units (Hartrees-Bohrs-Radians)
 Mixed Optimization -- RFO/linear search
 Update second derivatives using D2CorX and points    3    4
 DE= -4.88D-02 DEPred=-4.79D-02 R= 1.02D+00
 SS=  1.41D+00  RLast= 4.96D-01 DXNew= 8.4853D-01 1.4871D+00
 Trust test= 1.02D+00 RLast= 4.96D-01 DXMaxT set to 8.49D-01
 The second derivative matrix:
                          R1        R2        R3        R4        R5
           R1           0.55237
           R2          -0.00167   0.55355
           R3           0.00677   0.00414   0.03414
           R4          -0.00387  -0.00283   0.01156   0.54827
           R5           0.02186   0.01376  -0.02060   0.03656   0.44792
           R6           0.03139   0.01733   0.00684   0.05039  -0.07783
           A1          -0.00176  -0.00096   0.00032  -0.00276   0.00708
           A2           0.00637   0.00401  -0.00192   0.01137  -0.02162
           A3          -0.00383  -0.00264   0.00094  -0.00750   0.00917
           A4           0.02070   0.01302  -0.00849   0.03612  -0.08030
           A5           0.04509   0.02795   0.01716   0.08095  -0.04103
           A6          -0.00219  -0.00119   0.00017  -0.00341   0.00838
           D1          -0.00216  -0.00125  -0.00024  -0.00340   0.00823
           D2           0.00017   0.00009   0.00006   0.00023  -0.00075
           D3          -0.00025  -0.00014  -0.00002  -0.00041   0.00092
           D4          -0.00159  -0.00059  -0.00033  -0.00041   0.01732
           D5          -0.00002  -0.00002   0.00002  -0.00006   0.00006
                          R6        A1        A2        A3        A4
           R6           0.19671
           A1           0.00572   0.15946
           A2           0.00561   0.00018   0.15729
           A3          -0.01926   0.00090   0.00191   0.15680
           A4          -0.00846   0.00189  -0.01200   0.00755   0.11369
           A5           0.28143  -0.00517   0.00557  -0.00240  -0.01441
           A6           0.00626  -0.00066   0.00007   0.00126   0.00186
           D1           0.00356  -0.00030   0.00052   0.00007   0.00154
           D2          -0.00082   0.00006  -0.00005  -0.00005  -0.00004
           D3           0.00019  -0.00001   0.00004   0.00000   0.00015
           D4           0.04150  -0.00238   0.00262   0.00106   0.00289
           D5          -0.00019   0.00002   0.00000  -0.00002   0.00005
                          A5        A6        D1        D2        D3
           A5           0.67086
           A6          -0.00864   0.15921
           D1           0.00083  -0.00030   0.01615
           D2          -0.00014   0.00006  -0.00009   0.00231
           D3           0.00028  -0.00001   0.00006  -0.00001   0.00231
           D4           0.02559  -0.00283   0.00205  -0.00041   0.00013
           D5           0.00011   0.00002  -0.00001   0.00000   0.00000
                          D4        D5
           D4           0.02857
           D5          -0.00009   0.00230
 ITU=  1  0  1  0
 Use linear search instead of GDIIS.
     Eigenvalues ---    0.00230   0.00230   0.00295   0.01587   0.02963
     Eigenvalues ---    0.07141   0.08734   0.13919   0.16006   0.16073
     Eigenvalues ---    0.43616   0.54485   0.55471   0.55475   0.85438
 RFO step:  Lambda=-3.11439043D-02 EMin= 2.29750062D-03
 Quartic linear search produced a step of  0.79477.
 Iteration  1 RMS(Cart)=  0.10621400 RMS(Int)=  0.16513853
 Iteration  2 RMS(Cart)=  0.06999138 RMS(Int)=  0.09738687
 Iteration  3 RMS(Cart)=  0.08805616 RMS(Int)=  0.03532762
 Iteration  4 RMS(Cart)=  0.03663960 RMS(Int)=  0.00146029
 Iteration  5 RMS(Cart)=  0.00041294 RMS(Int)=  0.00143214
 Iteration  6 RMS(Cart)=  0.00000017 RMS(Int)=  0.00143214
 Variable       Old X    -DE/DX   Delta X   Delta X   Delta X     New X
                                 (Linear)    (Quad)   (Total)
    R1        1.81830   0.00391   0.02652  -0.04286  -0.01634   1.80195
    R2        1.82092   0.00309   0.01778  -0.02363  -0.00585   1.81507
    R3        3.79524  -0.01544  -0.12179  -0.09435  -0.21614   3.57910
    R4        1.83865   0.00662   0.05117  -0.07072  -0.01954   1.81911
    R5        1.79093   0.00600  -0.07373   0.18925   0.11553   1.90645
    R6        2.42358   0.06779   0.30119   0.44162   0.74280   3.16638
    A1        1.85556  -0.00362  -0.01744  -0.03770  -0.05562   1.79994
    A2        2.56213  -0.00775  -0.03773  -0.00335  -0.04367   2.51847
    A3        1.74617   0.01239   0.06221   0.07926   0.14071   1.88688
    A4        2.13908  -0.02350  -0.16384   0.09201  -0.07183   2.06725
    A5        0.83579   0.02509  -0.05711  -0.16934  -0.22645   0.60933
    A6        2.33418  -0.00401  -0.02423  -0.04544  -0.06967   2.26451
    D1       -2.78566   0.00128   0.00412  -0.04993  -0.05011  -2.83577
    D2        0.86161   0.00259   0.01397   0.05174   0.06361   0.92522
    D3       -1.62297  -0.00309  -0.02182  -0.04729  -0.06700  -1.68997
    D4       -1.94332  -0.00739   0.06015  -0.64534  -0.58520  -2.52852
    D5       -3.14119   0.00023   0.00053   0.00972   0.01025  -3.13094
         Item               Value     Threshold  Converged?
 Maximum Force            0.067788     0.000450     NO 
 RMS     Force            0.019456     0.000300     NO 
 Maximum Displacement     0.344857     0.001800     NO 
 RMS     Displacement     0.202077     0.001200     NO 
 Predicted change in Energy=-4.585917D-02
 GradGradGradGradGradGradGradGradGradGradGradGradGradGradGradGradGradGrad

                          Input orientation:                          
 ---------------------------------------------------------------------
 Center     Atomic      Atomic             Coordinates (Angstroms)
 Number     Number       Type             X           Y           Z
 ---------------------------------------------------------------------
      1          8           0       -4.832061   -1.781822   -0.191502
      2          1           0       -4.272147   -1.210314   -0.710284
      3          1           0       -5.559698   -1.206586    0.057881
      4          8           0       -4.659117   -3.949244    1.718625
      5          1           0       -5.369128   -4.491516    2.077068
      6          1           0       -3.970106   -3.577707    2.355024
      7          1           0       -4.849820   -3.286150    0.959080
 ---------------------------------------------------------------------
                    Distance matrix (angstroms):
                    1          2          3          4          5
     1  O    0.000000
     2  H    0.953552   0.000000
     3  H    0.960492   1.499293   0.000000
     4  O    2.894168   3.681179   3.330358   0.000000
     5  H    3.574533   4.442858   3.860595   0.962630   0.000000
     6  H    3.233104   3.884829   3.664134   1.008851   1.693981
     7  H    1.893979   2.725725   2.375010   1.026143   1.724090
                    6          7
     6  H    0.000000
     7  H    1.675578   0.000000
 Stoichiometry    H5O2(1+)
 Framework group  C1[X(H5O2)]
 Deg. of freedom    15
 Full point group                 C1      NOp   1
 Largest Abelian subgroup         C1      NOp   1
 Largest concise Abelian subgroup C1      NOp   1
                         Standard orientation:                         
 ---------------------------------------------------------------------
 Center     Atomic      Atomic             Coordinates (Angstroms)
 Number     Number       Type             X           Y           Z
 ---------------------------------------------------------------------
      1          8           0        1.455409    0.011030   -0.050661
      2          1           0        2.199444   -0.575584   -0.158164
      3          1           0        1.757195    0.624872    0.623630
      4          8           0       -1.438555   -0.023243   -0.053436
      5          1           0       -2.047693    0.721513   -0.022659
      6          1           0       -1.612758   -0.811810    0.551209
      7          1           0       -0.431023    0.138708   -0.161238
 ---------------------------------------------------------------------
 Rotational constants (GHZ):    182.9460343      6.1019343      6.0201129
 Standard basis: 6-31G(d,p) (6D, 7F)
 There are    55 symmetry adapted basis functions of A   symmetry.
 Integral buffers will be    131072 words long.
 Raffenetti 2 integral format.
 Two-electron integral symmetry is turned on.
    55 basis functions,    91 primitive gaussians,    55 cartesian basis functions
    10 alpha electrons       10 beta electrons
       nuclear repulsion energy        42.6606660102 Hartrees.
 NAtoms=    7 NActive=    7 NUniq=    7 SFac= 1.00D+00 NAtFMM=   60 NAOKFM=F Big=F
 One-electron integrals computed using PRISM.
 NBasis=    55 RedAO= T  NBF=    55
 NBsUse=    55 1.00D-06 NBFU=    55
 Initial guess read from the read-write file.
 B after Tr=     0.000000    0.000000    0.000000
         Rot=    1.000000    0.000000    0.000000    0.000000 Ang=   0.00 deg.
 Initial guess orbital symmetries:
       Occupied  (A) (A) (A) (A) (A) (A) (A) (A) (A) (A)
       Virtual   (A) (A) (A) (A) (A) (A) (A) (A) (A) (A) (A) (A)
                 (A) (A) (A) (A) (A) (A) (A) (A) (A) (A) (A) (A)
                 (A) (A) (A) (A) (A) (A) (A) (A) (A) (A) (A) (A)
                 (A) (A) (A) (A) (A) (A) (A) (A) (A)
 Harris functional with IExCor=  402 diagonalized for initial guess.
 ExpMin= 1.61D-01 ExpMax= 5.48D+03 ExpMxC= 8.25D+02 IAcc=1 IRadAn=         1 AccDes= 0.00D+00
 HarFok:  IExCor=  402 AccDes= 0.00D+00 IRadAn=         1 IDoV= 1
 ScaDFX=  1.000000  1.000000  1.000000  1.000000
 FoFCou: FMM=F IPFlag=           0 FMFlag=      100000 FMFlg1=           0
         NFxFlg=           0 DoJE=T BraDBF=F KetDBF=T FulRan=T
         Omega=  0.000000  0.000000  1.000000  0.000000  0.000000 ICntrl=     500 IOpCl=  0
         NMat0=    1 NMatS0=    1 NMatT0=    0 NMatD0=    1 NMtDS0=    0 NMtDT0=    0
         I1Cent=           4 NGrid=           0.
 Petite list used in FoFCou.
 Requested convergence on RMS density matrix=1.00D-08 within 128 cycles.
 Requested convergence on MAX density matrix=1.00D-06.
 Requested convergence on             energy=1.00D-06.
 No special actions if energy rises.
 Keep R1 ints in memory in canonical form, NReq=2144859.
 Integral accuracy reduced to 1.0D-05 until final iterations.
 Initial convergence to 1.0D-05 achieved.  Increase integral accuracy.
 SCF Done:  E(RB3LYP) =  -153.166125277     A.U. after   11 cycles
             Convg  =    0.7567D-08             -V/T =  2.0095
 Calling FoFJK, ICntrl=      2127 FMM=F ISym2X=0 I1Cent= 0 IOpClX= 0 NMat=1 NMatS=1 NMatT=0.
 ***** Axes restored to original set *****
 -------------------------------------------------------------------
 Center     Atomic                   Forces (Hartrees/Bohr)
 Number     Number              X              Y              Z
 -------------------------------------------------------------------
      1        8          -0.011587120   -0.018435413    0.020166276
      2        1           0.014876567    0.001815039   -0.008521306
      3        1          -0.007492216    0.003373008    0.000739231
      4        8           0.033808796    0.031924920   -0.007981914
      5        1          -0.009821696   -0.003772030    0.006568651
      6        1          -0.022346539   -0.014256911   -0.012759658
      7        1           0.002562208   -0.000648612    0.001788719
 -------------------------------------------------------------------
 Cartesian Forces:  Max     0.033808796 RMS     0.014640923

 GradGradGradGradGradGradGradGradGradGradGradGradGradGradGradGradGradGrad
 Berny optimization.
 Using GEDIIS/GDIIS optimizer.
 Internal  Forces:  Max     0.047717706 RMS     0.015492318
 Search for a local minimum.
 Step number   5 out of a maximum of   27
 All quantities printed in internal units (Hartrees-Bohrs-Radians)
 Mixed Optimization -- RFO/linear search
 Update second derivatives using D2CorX and points    4    5
 DE= -2.56D-02 DEPred=-4.59D-02 R= 5.58D-01
 SS=  1.41D+00  RLast= 1.03D+00 DXNew= 1.4270D+00 3.0773D+00
 Trust test= 5.58D-01 RLast= 1.03D+00 DXMaxT set to 1.43D+00
 The second derivative matrix:
                          R1        R2        R3        R4        R5
           R1           0.55351
           R2          -0.00137   0.55352
           R3           0.00775   0.00500   0.03154
           R4          -0.00419  -0.00334   0.01369   0.54668
           R5           0.01552   0.01072  -0.01815   0.03283   0.46509
           R6           0.00874   0.00475   0.02522   0.03034  -0.03852
           A1           0.00014  -0.00003  -0.00050  -0.00158   0.00212
           A2           0.00726   0.00478  -0.00418   0.01324  -0.01963
           A3          -0.00666  -0.00435   0.00403  -0.01056   0.01227
           A4           0.02807   0.01744  -0.01634   0.04396  -0.08879
           A5           0.02584   0.01747   0.03165   0.06470  -0.00504
           A6          -0.00078  -0.00045  -0.00068  -0.00236   0.00526
           D1          -0.00243  -0.00145   0.00026  -0.00383   0.00804
           D2           0.00033   0.00018  -0.00007   0.00037  -0.00102
           D3          -0.00025  -0.00014  -0.00003  -0.00040   0.00097
           D4          -0.00121  -0.00097   0.00268  -0.00240   0.00907
           D5           0.00002   0.00001  -0.00002  -0.00002   0.00000
                          R6        A1        A2        A3        A4
           R6           0.23138
           A1          -0.00513   0.16088
           A2           0.02118  -0.00050   0.15533
           A3          -0.02362   0.00011   0.00455   0.15498
           A4           0.00086   0.00408  -0.01870   0.01197   0.10293
           A5           0.32328  -0.01520   0.01781  -0.00430  -0.01113
           A6           0.00090   0.00023  -0.00064   0.00106   0.00248
           D1           0.00083  -0.00022   0.00095  -0.00044   0.00283
           D2          -0.00106   0.00013  -0.00016  -0.00002  -0.00010
           D3           0.00040  -0.00003   0.00003   0.00002   0.00009
           D4           0.00448   0.00017   0.00527  -0.00418   0.01640
           D5          -0.00022   0.00003  -0.00003  -0.00001   0.00001
                          A5        A6        D1        D2        D3
           A5           0.71659
           A6          -0.01387   0.15972
           D1          -0.00125  -0.00019   0.01605
           D2          -0.00043   0.00010  -0.00007   0.00232
           D3           0.00045  -0.00002   0.00006  -0.00001   0.00231
           D4          -0.00499  -0.00075   0.00139  -0.00014   0.00014
           D5           0.00006   0.00003   0.00000   0.00000   0.00000
                          D4        D5
           D4           0.02659
           D5          -0.00001   0.00230
 ITU=  1  1  0  1  0
 Use linear search instead of GDIIS.
     Eigenvalues ---    0.00230   0.00230   0.00811   0.01326   0.02775
     Eigenvalues ---    0.06474   0.07942   0.14979   0.16007   0.16081
     Eigenvalues ---    0.47654   0.54785   0.55471   0.55588   0.90006
 RFO step:  Lambda=-2.35002926D-02 EMin= 2.29969377D-03
 Quartic linear search produced a step of -0.01197.
 Iteration  1 RMS(Cart)=  0.12764122 RMS(Int)=  0.08847348
 Iteration  2 RMS(Cart)=  0.08076440 RMS(Int)=  0.03276731
 Iteration  3 RMS(Cart)=  0.04333529 RMS(Int)=  0.00205014
 Iteration  4 RMS(Cart)=  0.00002938 RMS(Int)=  0.00204981
 Iteration  5 RMS(Cart)=  0.00000010 RMS(Int)=  0.00204981
 Variable       Old X    -DE/DX   Delta X   Delta X   Delta X     New X
                                 (Linear)    (Quad)   (Total)
    R1        1.80195   0.01446   0.00020   0.05849   0.05868   1.86063
    R2        1.81507   0.00789   0.00007   0.03570   0.03577   1.85083
    R3        3.57910  -0.01808   0.00259  -0.52822  -0.52563   3.05347
    R4        1.81911   0.01182   0.00023   0.07890   0.07913   1.89824
    R5        1.90645  -0.02586  -0.00138  -0.14419  -0.14557   1.76088
    R6        3.16638  -0.01337  -0.00889   0.11390   0.10501   3.27139
    A1        1.79994   0.00566   0.00067   0.04118   0.04317   1.84311
    A2        2.51847  -0.00981   0.00052  -0.14003  -0.14079   2.37768
    A3        1.88688   0.00493  -0.00168   0.10929   0.10835   1.99524
    A4        2.06725  -0.00347   0.00086  -0.32193  -0.32107   1.74618
    A5        0.60933  -0.04772   0.00271  -0.09904  -0.09633   0.51300
    A6        2.26451   0.00204   0.00083   0.01055   0.01139   2.27589
    D1       -2.83577   0.00129   0.00060   0.02020   0.01504  -2.82073
    D2        0.92522   0.00316  -0.00076   0.04008   0.03518   0.96040
    D3       -1.68997  -0.00318   0.00080  -0.04156  -0.03662  -1.72658
    D4       -2.52852   0.00522   0.00700   0.27251   0.27952  -2.24900
    D5       -3.13094   0.00037  -0.00012   0.01513   0.01500  -3.11594
         Item               Value     Threshold  Converged?
 Maximum Force            0.047718     0.000450     NO 
 RMS     Force            0.015492     0.000300     NO 
 Maximum Displacement     0.479210     0.001800     NO 
 RMS     Displacement     0.223761     0.001200     NO 
 Predicted change in Energy=-1.817668D-02
 GradGradGradGradGradGradGradGradGradGradGradGradGradGradGradGradGradGrad

                          Input orientation:                          
 ---------------------------------------------------------------------
 Center     Atomic      Atomic             Coordinates (Angstroms)
 Number     Number       Type             X           Y           Z
 ---------------------------------------------------------------------
      1          8           0       -4.866872   -1.895875   -0.077530
      2          1           0       -4.193924   -1.319488   -0.506908
      3          1           0       -5.646049   -1.322433    0.075139
      4          8           0       -4.581433   -3.865807    1.581850
      5          1           0       -5.354069   -4.237929    2.104908
      6          1           0       -4.018208   -3.614505    2.280358
      7          1           0       -4.851521   -3.247302    0.808076
 ---------------------------------------------------------------------
                    Distance matrix (angstroms):
                    1          2          3          4          5
     1  O    0.000000
     2  H    0.984605   0.000000
     3  H    0.979418   1.564434   0.000000
     4  O    2.591457   3.316144   3.142027   0.000000
     5  H    3.238149   4.084705   3.564453   1.004505   0.000000
     6  H    3.038676   3.614807   3.573017   0.931820   1.484576
     7  H    1.615825   2.424477   2.207622   1.026753   1.707533
                    6          7
     6  H    0.000000
     7  H    1.731145   0.000000
 Stoichiometry    H5O2(1+)
 Framework group  C1[X(H5O2)]
 Deg. of freedom    15
 Full point group                 C1      NOp   1
 Largest Abelian subgroup         C1      NOp   1
 Largest concise Abelian subgroup C1      NOp   1
                         Standard orientation:                         
 ---------------------------------------------------------------------
 Center     Atomic      Atomic             Coordinates (Angstroms)
 Number     Number       Type             X           Y           Z
 ---------------------------------------------------------------------
      1          8           0        1.300637    0.008708   -0.042386
      2          1           0        1.956796   -0.722723    0.020150
      3          1           0        1.701397    0.763716    0.435750
      4          8           0       -1.289916   -0.053771   -0.070310
      5          1           0       -1.844231    0.772110    0.069996
      6          1           0       -1.603154   -0.580959    0.631290
      7          1           0       -0.296581    0.128354   -0.255618
 ---------------------------------------------------------------------
 Rotational constants (GHZ):    176.7887544      7.5081093      7.3593494
 Standard basis: 6-31G(d,p) (6D, 7F)
 There are    55 symmetry adapted basis functions of A   symmetry.
 Integral buffers will be    131072 words long.
 Raffenetti 2 integral format.
 Two-electron integral symmetry is turned on.
    55 basis functions,    91 primitive gaussians,    55 cartesian basis functions
    10 alpha electrons       10 beta electrons
       nuclear repulsion energy        44.8567870768 Hartrees.
 NAtoms=    7 NActive=    7 NUniq=    7 SFac= 1.00D+00 NAtFMM=   60 NAOKFM=F Big=F
 One-electron integrals computed using PRISM.
 NBasis=    55 RedAO= T  NBF=    55
 NBsUse=    55 1.00D-06 NBFU=    55
 Initial guess read from the read-write file.
 B after Tr=     0.000000    0.000000    0.000000
         Rot=    1.000000    0.000000    0.000000    0.000000 Ang=   0.00 deg.
 Initial guess orbital symmetries:
       Occupied  (A) (A) (A) (A) (A) (A) (A) (A) (A) (A)
       Virtual   (A) (A) (A) (A) (A) (A) (A) (A) (A) (A) (A) (A)
                 (A) (A) (A) (A) (A) (A) (A) (A) (A) (A) (A) (A)
                 (A) (A) (A) (A) (A) (A) (A) (A) (A) (A) (A) (A)
                 (A) (A) (A) (A) (A) (A) (A) (A) (A)
 Harris functional with IExCor=  402 diagonalized for initial guess.
 ExpMin= 1.61D-01 ExpMax= 5.48D+03 ExpMxC= 8.25D+02 IAcc=1 IRadAn=         1 AccDes= 0.00D+00
 HarFok:  IExCor=  402 AccDes= 0.00D+00 IRadAn=         1 IDoV= 1
 ScaDFX=  1.000000  1.000000  1.000000  1.000000
 FoFCou: FMM=F IPFlag=           0 FMFlag=      100000 FMFlg1=           0
         NFxFlg=           0 DoJE=T BraDBF=F KetDBF=T FulRan=T
         Omega=  0.000000  0.000000  1.000000  0.000000  0.000000 ICntrl=     500 IOpCl=  0
         NMat0=    1 NMatS0=    1 NMatT0=    0 NMatD0=    1 NMtDS0=    0 NMtDT0=    0
         I1Cent=           4 NGrid=           0.
 Petite list used in FoFCou.
 Requested convergence on RMS density matrix=1.00D-08 within 128 cycles.
 Requested convergence on MAX density matrix=1.00D-06.
 Requested convergence on             energy=1.00D-06.
 No special actions if energy rises.
 Keep R1 ints in memory in canonical form, NReq=2144699.
 Integral accuracy reduced to 1.0D-05 until final iterations.
 Initial convergence to 1.0D-05 achieved.  Increase integral accuracy.
 SCF Done:  E(RB3LYP) =  -153.170007195     A.U. after   11 cycles
             Convg  =    0.8945D-08             -V/T =  2.0091
 Calling FoFJK, ICntrl=      2127 FMM=F ISym2X=0 I1Cent= 0 IOpClX= 0 NMat=1 NMatS=1 NMatT=0.
 ***** Axes restored to original set *****
 -------------------------------------------------------------------
 Center     Atomic                   Forces (Hartrees/Bohr)
 Number     Number              X              Y              Z
 -------------------------------------------------------------------
      1        8          -0.006804862    0.007104940    0.004052653
      2        1          -0.007963283   -0.013885404    0.006809452
      3        1           0.008765264   -0.005668969   -0.004243847
      4        8          -0.061184038   -0.047077501   -0.000025982
      5        1           0.008421208    0.002799110   -0.024523929
      6        1           0.043600753    0.029630272    0.021284192
      7        1           0.015164959    0.027097551   -0.003352540
 -------------------------------------------------------------------
 Cartesian Forces:  Max     0.061184038 RMS     0.023289295

 GradGradGradGradGradGradGradGradGradGradGradGradGradGradGradGradGradGrad
 Berny optimization.
 Using GEDIIS/GDIIS optimizer.
 Internal  Forces:  Max     0.062239943 RMS     0.021672478
 Search for a local minimum.
 Step number   6 out of a maximum of   27
 All quantities printed in internal units (Hartrees-Bohrs-Radians)
 Mixed Optimization -- RFO/linear search
 Update second derivatives using D2CorX and points    5    6
 DE= -3.88D-03 DEPred=-1.82D-02 R= 2.14D-01
 Trust test= 2.14D-01 RLast= 7.39D-01 DXMaxT set to 1.43D+00
 The second derivative matrix:
                          R1        R2        R3        R4        R5
           R1           0.56072
           R2           0.00412   0.55745
           R3           0.01154   0.00684   0.02900
           R4           0.00766   0.00471   0.01574   0.56229
           R5          -0.02292  -0.01454  -0.02124  -0.01450   0.60515
           R6           0.02160   0.01120   0.01762   0.03822  -0.05284
           A1          -0.00512  -0.00268   0.00257  -0.00483   0.00811
           A2           0.01348   0.00799  -0.00744   0.01743  -0.02811
           A3          -0.01209  -0.00733   0.00613  -0.01491   0.02251
           A4          -0.00275  -0.00094  -0.01076   0.01343  -0.00687
           A5           0.01328   0.00600   0.01683   0.03649   0.09286
           A6          -0.01098  -0.00650   0.00132  -0.01232   0.03180
           D1           0.00119   0.00058  -0.00097  -0.00078   0.00061
           D2           0.00054   0.00033   0.00000   0.00068  -0.00200
           D3          -0.00101  -0.00063  -0.00002  -0.00127   0.00347
           D4           0.00605   0.00335   0.00133   0.00476  -0.01009
           D5          -0.00075  -0.00046   0.00009  -0.00081   0.00216
                          R6        A1        A2        A3        A4
           R6           0.20890
           A1           0.00395   0.15722
           A2           0.01161   0.00336   0.15129
           A3          -0.01764  -0.00230   0.00699   0.15367
           A4           0.01483  -0.00146  -0.01392   0.01140   0.13000
           A5           0.27493   0.00449  -0.00483   0.01411   0.08191
           A6           0.00603  -0.00181   0.00117   0.00070   0.01068
           D1          -0.00263   0.00117  -0.00044   0.00025   0.00242
           D2          -0.00081   0.00003  -0.00003  -0.00013  -0.00081
           D3           0.00033   0.00000  -0.00004   0.00015   0.00137
           D4           0.00105   0.00153   0.00408  -0.00400   0.01022
           D5           0.00003  -0.00006   0.00004   0.00001   0.00084
                          A5        A6        D1        D2        D3
           A5           0.72363
           A6           0.01722   0.16218
           D1          -0.01321  -0.00021   0.01570
           D2          -0.00088  -0.00013   0.00001   0.00232
           D3           0.00250   0.00039  -0.00004  -0.00003   0.00235
           D4          -0.02701  -0.00262   0.00146   0.00002  -0.00016
           D5           0.00232   0.00028  -0.00004  -0.00002   0.00003
                          D4        D5
           D4           0.02800
           D5          -0.00020   0.00232
 ITU=  0  1  1  0  1  0
 Use linear search instead of GDIIS.
     Eigenvalues ---    0.00230   0.00230   0.01266   0.01955   0.02520
     Eigenvalues ---    0.06876   0.11371   0.14710   0.16029   0.16518
     Eigenvalues ---    0.53742   0.55263   0.55470   0.64224   0.87700
 RFO step:  Lambda=-1.10041548D-02 EMin= 2.29732881D-03
 Quartic linear search produced a step of -0.39495.
 Iteration  1 RMS(Cart)=  0.11322196 RMS(Int)=  0.01007075
 Iteration  2 RMS(Cart)=  0.01248450 RMS(Int)=  0.00081246
 Iteration  3 RMS(Cart)=  0.00001947 RMS(Int)=  0.00081210
 Iteration  4 RMS(Cart)=  0.00000001 RMS(Int)=  0.00081210
 Variable       Old X    -DE/DX   Delta X   Delta X   Delta X     New X
                                 (Linear)    (Quad)   (Total)
    R1        1.86063  -0.01654  -0.02318   0.00607  -0.01710   1.84353
    R2        1.85083  -0.01095  -0.01413   0.00185  -0.01227   1.83856
    R3        3.05347  -0.01398   0.20760  -0.43142  -0.22382   2.82964
[...]
     2   1    -0.04  -0.40   0.24     0.29  -0.25   0.34    -0.04   0.38  -0.27
     3   1     0.00   0.21  -0.49     0.15  -0.23   0.36    -0.31   0.32  -0.27
     4   8     0.00   0.01  -0.02    -0.02  -0.04  -0.04    -0.04  -0.04  -0.04
     5   1     0.00   0.21   0.49     0.15   0.24   0.37     0.31   0.32   0.26
     6   1     0.04  -0.40  -0.24     0.29   0.26   0.35     0.03   0.37   0.26
     7   1     0.00   0.00   0.00    -0.16   0.00  -0.14     0.00  -0.17   0.00
                     4                      5                      6
                     A                      A                      A
 Frequencies --   482.8253               511.0418               618.2005
 Red. masses --     1.1218                 1.1060                 4.8290
 Frc consts  --     0.1541                 0.1702                 1.0873
 IR Inten    --     9.1209                 7.8468                 0.5263
  Atom  AN      X      Y      Z        X      Y      Z        X      Y      Z
     1   8    -0.02  -0.01   0.06     0.00   0.06   0.00     0.36   0.00   0.02
     2   1    -0.48   0.04  -0.27    -0.39  -0.12  -0.13     0.22  -0.03  -0.05
     3   1     0.30  -0.14  -0.14     0.42  -0.22  -0.02     0.55  -0.11   0.00
     4   8     0.02  -0.01  -0.06     0.00  -0.06   0.00    -0.36   0.00  -0.02
     5   1    -0.30  -0.14   0.14     0.43   0.22  -0.02    -0.55  -0.11   0.00
     6   1     0.47   0.04   0.26    -0.39   0.12  -0.13    -0.22  -0.03   0.05
     7   1     0.00   0.37   0.00    -0.06   0.00   0.40     0.00   0.13   0.00
                     7                      8                      9
                     A                      A                      A
 Frequencies --  1085.2865              1451.1770              1540.3135
 Red. masses --     1.0220                 1.0624                 1.0635
 Frc consts  --     0.7093                 1.3182                 1.4867
 IR Inten    --  2452.3498               347.2443               134.7603
  Atom  AN      X      Y      Z        X      Y      Z        X      Y      Z
     1   8     0.01  -0.01   0.01    -0.02   0.02   0.04     0.02   0.04   0.01
     2   1     0.13   0.18  -0.01    -0.10   0.06  -0.06    -0.35  -0.17  -0.08
     3   1     0.14  -0.03  -0.19     0.24  -0.09  -0.08    -0.02  -0.01   0.15
     4   8     0.01   0.01   0.01    -0.01  -0.02   0.04    -0.02   0.04  -0.01
     5   1     0.14   0.03  -0.19     0.25   0.09  -0.08     0.02   0.00  -0.15
     6   1     0.13  -0.18  -0.01    -0.10  -0.06  -0.06     0.35  -0.17   0.08
     7   1    -0.88   0.00  -0.07     0.19   0.00  -0.88     0.00  -0.80   0.00
                    10                     11                     12
                     A                      A                      A
 Frequencies --  1690.9426              1769.4851              3750.9486
 Red. masses --     1.0789                 1.0981                 1.0414
 Frc consts  --     1.8176                 2.0258                 8.6326
 IR Inten    --     3.9806              1357.4344               229.2470
  Atom  AN      X      Y      Z        X      Y      Z        X      Y      Z
     1   8    -0.04   0.01   0.02     0.05   0.01   0.00     0.03   0.01  -0.01
     2   1     0.25   0.26   0.04    -0.37  -0.27  -0.08    -0.24   0.25   0.39
     3   1     0.39  -0.16  -0.27    -0.29   0.11   0.26    -0.25  -0.39  -0.16
     4   8     0.04   0.01  -0.02     0.05  -0.01   0.00     0.03  -0.01  -0.01
     5   1    -0.39  -0.16   0.27    -0.29  -0.11   0.26    -0.24   0.38  -0.16
     6   1    -0.25   0.26  -0.04    -0.37   0.27  -0.08    -0.23  -0.24   0.38
     7   1     0.00  -0.48   0.00    -0.40   0.00  -0.29     0.03   0.00  -0.01
                    13                     14                     15
                     A                      A                      A
 Frequencies --  3759.9299              3853.5596              3854.0161
 Red. masses --     1.0444                 1.0870                 1.0871
 Frc consts  --     8.6988                 9.5105                 9.5134
 IR Inten    --     7.9556               239.7183               313.7449
  Atom  AN      X      Y      Z        X      Y      Z        X      Y      Z
     1   8    -0.03  -0.01   0.01     0.00   0.05   0.04     0.00   0.02   0.02
     2   1     0.24  -0.25  -0.39     0.29  -0.27  -0.46     0.14  -0.13  -0.21
     3   1     0.24   0.37   0.16    -0.35  -0.53  -0.20    -0.16  -0.25  -0.10
     4   8     0.03  -0.01  -0.01     0.00  -0.02   0.02     0.00   0.05  -0.04
     5   1    -0.25   0.39  -0.16    -0.16   0.24  -0.09     0.35  -0.53   0.20
     6   1    -0.24  -0.25   0.39     0.14   0.13  -0.22    -0.29  -0.28   0.46
     7   1     0.00  -0.01   0.00     0.00   0.00   0.00     0.00   0.00   0.00

 -------------------
 - Thermochemistry -
 -------------------
 Temperature   298.150 Kelvin.  Pressure   1.00000 Atm.
 Atom     1 has atomic number  8 and mass  15.99491
 Atom     2 has atomic number  1 and mass   1.00783
 Atom     3 has atomic number  1 and mass   1.00783
 Atom     4 has atomic number  8 and mass  15.99491
 Atom     5 has atomic number  1 and mass   1.00783
 Atom     6 has atomic number  1 and mass   1.00783
 Atom     7 has atomic number  1 and mass   1.00783
 Molecular mass:    37.02895 amu.
 Principal axes and moments of inertia in atomic units:
                           1         2         3
     Eigenvalues --    10.11027 208.96515 210.13322
           X            0.99983   0.00003  -0.01862
           Y           -0.00002   1.00000   0.00011
           Z            0.01862  -0.00011   0.99983
 This molecule is an asymmetric top.
 Rotational symmetry number  1.
 Rotational temperatures (Kelvin)      8.56691     0.41449     0.41219
 Rotational constants (GHZ):         178.50572     8.63657     8.58856
 Zero-point vibrational energy     151527.9 (Joules/Mol)
                                   36.21603 (Kcal/Mol)
 Warning -- explicit consideration of   6 degrees of freedom as
           vibrations may cause significant error
 Vibrational temperatures:    236.06   546.04   607.41   694.68   735.27
          (Kelvin)            889.45  1561.48  2087.92  2216.16  2432.89
                             2545.89  5396.77  5409.69  5544.41  5545.06
 
 Zero-point correction=                           0.057714 (Hartree/Particle)
 Thermal correction to Energy=                    0.062428
 Thermal correction to Enthalpy=                  0.063372
 Thermal correction to Gibbs Free Energy=         0.033077
 Sum of electronic and zero-point Energies=           -153.134133
 Sum of electronic and thermal Energies=              -153.129419
 Sum of electronic and thermal Enthalpies=            -153.128475
 Sum of electronic and thermal Free Energies=         -153.158769
 
                     E (Thermal)             CV                S
                      KCal/Mol        Cal/Mol-Kelvin    Cal/Mol-Kelvin
 Total                   39.174             14.804             63.760
 Electronic               0.000              0.000              0.000
 Translational            0.889              2.981             36.757
 Rotational               0.889              2.981             20.723
 Vibrational             37.397              8.842              6.281
 Vibration     1          0.623              1.887              2.502
 Vibration     2          0.750              1.514              1.041
 Vibration     3          0.785              1.422              0.885
 Vibration     4          0.839              1.288              0.702
 Vibration     5          0.866              1.226              0.631
 Vibration     6          0.978              0.993              0.419
                       Q            Log10(Q)             Ln(Q)
 Total Bot       0.610318D-15        -15.214444        -35.032552
 Total V=0       0.214813D+12         11.332060         26.093031
 Vib (Bot)       0.913643D-26        -26.039223        -59.957527
 Vib (Bot)    1  0.123064D+01          0.090132          0.207536
 Vib (Bot)    2  0.476576D+00         -0.321868         -0.741129
 Vib (Bot)    3  0.415226D+00         -0.381715         -0.878932
 Vib (Bot)    4  0.345551D+00         -0.461488         -1.062614
 Vib (Bot)    5  0.318439D+00         -0.496974         -1.144324
 Vib (Bot)    6  0.237008D+00         -0.625237         -1.439662
 Vib (V=0)       0.321573D+01          0.507280          1.168056
 Vib (V=0)    1  0.182834D+01          0.262056          0.603407
 Vib (V=0)    2  0.119074D+01          0.075818          0.174577
 Vib (V=0)    3  0.114993D+01          0.060672          0.139703
 Vib (V=0)    4  0.110779D+01          0.044456          0.102365
 Vib (V=0)    5  0.109279D+01          0.038538          0.088737
 Vib (V=0)    6  0.105333D+01          0.022564          0.051955
 Electronic      0.100000D+01          0.000000          0.000000
 Translational   0.885661D+07          6.947267         15.996674
 Rotational      0.754244D+04          3.877512          8.928302
 ***** Axes restored to original set *****
 -------------------------------------------------------------------
 Center     Atomic                   Forces (Hartrees/Bohr)
 Number     Number              X              Y              Z
 -------------------------------------------------------------------
      1        8          -0.000003804    0.000036719   -0.000038467
      2        1           0.000020579   -0.000027113    0.000026464
      3        1          -0.000008912   -0.000008834    0.000028732
      4        8          -0.000025966    0.000011225   -0.000030526
      5        1           0.000018253    0.000033669   -0.000010266
      6        1           0.000018428    0.000004330    0.000025976
      7        1          -0.000018579   -0.000049995   -0.000001912
 -------------------------------------------------------------------
 Cartesian Forces:  Max     0.000049995 RMS     0.000024756

 GradGradGradGradGradGradGradGradGradGradGradGradGradGradGradGradGradGrad
 Berny optimization.
 Internal  Forces:  Max     0.000111144 RMS     0.000034923
 Search for a local minimum.
 Step number   1 out of a maximum of    2
 All quantities printed in internal units (Hartrees-Bohrs-Radians)
 Second derivative matrix not updated -- analytic derivatives used.
 The second derivative matrix:
                          R1        R2        R3        R4        R5
           R1           0.51920
           R2          -0.00230   0.52140
           R3           0.00491   0.00448   0.14307
           R4           0.00044   0.00055  -0.00330   0.52133
           R5           0.00254   0.00246  -0.05651  -0.00350   0.56624
           R6          -0.00325  -0.00318   0.10189   0.00352  -0.06726
           A1           0.01015   0.01071   0.00355  -0.00007   0.00411
           A2          -0.00179  -0.00633  -0.00142  -0.00004  -0.00136
           A3          -0.00515  -0.00030  -0.00022   0.00010  -0.00436
           A4           0.00022  -0.00015  -0.01644   0.01577   0.00090
           A5          -0.00488  -0.00477   0.18468   0.00985  -0.04049
           A6           0.00140   0.00132   0.00191   0.00077   0.02379
           D1           0.00406   0.00318   0.00206  -0.00002  -0.00233
           D2          -0.00435  -0.00500  -0.00193   0.00005   0.00006
           D3           0.00432   0.00502   0.00219   0.00001  -0.00053
           D4          -0.00079  -0.00005  -0.01059  -0.00643  -0.01573
           D5           0.00064  -0.00056   0.00032  -0.00075   0.00038
                          R6        A1        A2        A3        A4
           R6           0.12013
           A1          -0.00932   0.06873
           A2           0.00379  -0.03216   0.03990
           A3           0.00880  -0.03365  -0.01352   0.05312
           A4           0.01324   0.00172   0.00004  -0.00317   0.17865
           A5           0.16856  -0.01999   0.00888   0.01758  -0.04100
           A6          -0.01370  -0.00228   0.00153  -0.00103  -0.00278
           D1           0.00514  -0.00542   0.00794  -0.00096  -0.00166
           D2          -0.00012  -0.01591   0.00991   0.00318   0.00067
           D3           0.00073   0.01581  -0.01068  -0.00255  -0.00062
           D4           0.00421   0.00161   0.00084  -0.00317   0.02978
           D5          -0.00076  -0.00049   0.00296  -0.00322   0.00237
                          A5        A6        D1        D2        D3
           A5           0.57846
           A6           0.03550   0.05222
           D1           0.01067  -0.00176   0.00510
           D2          -0.00017   0.00127  -0.00039   0.00601
           D3           0.00090  -0.00215  -0.00027  -0.00432   0.00561
           D4          -0.04704  -0.00582  -0.00042  -0.00001  -0.00035
           D5          -0.00166  -0.00094   0.00032   0.00115  -0.00005
                          D4        D5
           D4           0.02186
           D5          -0.00153   0.01331
 ITU=  0
     Eigenvalues ---    0.00135   0.00569   0.00765   0.01279   0.02274
     Eigenvalues ---    0.04727   0.06294   0.09591   0.11280   0.18600
     Eigenvalues ---    0.51843   0.52202   0.52304   0.54592   0.74981
 Angle between quadratic step and forces=  79.51 degrees.
 Linear search not attempted -- first point.
 Iteration  1 RMS(Cart)=  0.00119215 RMS(Int)=  0.00000104
 Iteration  2 RMS(Cart)=  0.00000105 RMS(Int)=  0.00000001
 Iteration  3 RMS(Cart)=  0.00000000 RMS(Int)=  0.00000001
 Variable       Old X    -DE/DX   Delta X   Delta X   Delta X     New X
                                 (Linear)    (Quad)   (Total)
    R1        1.83546  -0.00001   0.00000  -0.00004  -0.00004   1.83542
    R2        1.83427   0.00000   0.00000  -0.00001  -0.00001   1.83426
    R3        2.26649  -0.00001   0.00000   0.00065   0.00065   2.26714
    R4        1.83431  -0.00004   0.00000  -0.00005  -0.00005   1.83426
    R5        1.83534   0.00003   0.00000   0.00008   0.00008   1.83542
    R6        3.51545  -0.00003   0.00000  -0.00084  -0.00084   3.51461
    A1        1.91846   0.00004   0.00000   0.00025   0.00025   1.91871
    A2        2.05126  -0.00003   0.00000  -0.00037  -0.00037   2.05089
    A3        2.09102  -0.00002   0.00000  -0.00005  -0.00005   2.09097
    A4        1.91866   0.00002   0.00000   0.00005   0.00005   1.91871
    A5        0.60910  -0.00011   0.00000   0.00001   0.00001   0.60911
    A6        2.60560  -0.00003   0.00000  -0.00075  -0.00075   2.60486
    D1        2.45616  -0.00001   0.00000  -0.00035  -0.00035   2.45581
    D2        1.97954  -0.00001   0.00000  -0.00248  -0.00248   1.97706
    D3       -1.89777   0.00001   0.00000  -0.00262  -0.00262  -1.90039
    D4       -2.47440   0.00002   0.00000   0.00098   0.00098  -2.47342
    D5       -2.97011   0.00000   0.00000  -0.00009  -0.00009  -2.97020
         Item               Value     Threshold  Converged?
 Maximum Force            0.000111     0.000450     YES
 RMS     Force            0.000035     0.000300     YES
 Maximum Displacement     0.001870     0.001800     NO 
 RMS     Displacement     0.001192     0.001200     YES
 Predicted change in Energy=-5.239932D-08
 GradGradGradGradGradGradGradGradGradGradGradGradGradGradGradGradGradGrad

 1\1\GINC-STUDENT-LENOVO-S510\Freq\RB3LYP\6-31G(d,p)\H5O2(1+)\STUDENT\0
 1-Mar-2021\0\\#N Geom=AllCheck Guess=TCheck SCRF=Check GenChk RB3LYP/6
 -31G(d,p) Freq\\Title Card Required\\1,1\O,-4.8005561234,-1.8098423701
 ,0.1929138494\H,-4.3842588111,-1.8631175737,-0.6830113936\H,-5.6266718
 385,-1.3033948488,0.1361949529\O,-4.5683037816,-3.7428588314,1.5903509
 428\H,-5.2780225271,-4.3959357767,1.6998983461\H,-4.1103560165,-3.6065
 998144,2.4359182729\H,-4.7439072418,-2.7815885949,0.8936273895\\Versio
 n=EM64L-G09RevC.01\State=1-A\HF=-153.1918464\RMSD=9.593e-10\RMSF=2.476
 e-05\ZeroPoint=0.0577139\Thermal=0.0624277\Dipole=-0.5377474,-0.050593
 4,0.0175643\DipoleDeriv=-0.4831553,-0.0040023,-0.0264536,0.0138106,-0.
 9308685,0.3201364,-0.0378304,0.2900183,-0.7108272,0.4148964,0.0619851,
 -0.0628843,0.0481396,0.3549157,0.033215,-0.0355577,0.0195209,0.4137451
 ,0.4181514,-0.0343782,0.026243,-0.0257272,0.4280074,0.0433477,0.001293
 8,0.0687387,0.3284575,-0.5022231,0.1067281,-0.049302,0.0910651,-0.9128
 806,0.3148977,-0.0324357,0.2860898,-0.7100448,0.4036355,0.0346557,-0.0
 393685,0.0240504,0.4392805,0.0354206,-0.0195576,0.0644132,0.3314257,0.
 4389267,-0.0446934,0.0539004,-0.029758,0.3370325,0.047167,0.0295925,0.
 0295384,0.4071981,0.3097682,-0.120295,0.097865,-0.1215804,1.284513,-0.
 7941844,0.0944951,-0.7583193,0.9400455\Polar=9.6539968,-0.3499311,12.0
 195167,0.4248774,-3.4901844,12.261224\PG=C01 [X(H5O2)]\NImag=0\\0.5221
 7948,-0.27080998,0.29062468,-0.17911814,-0.08367382,0.54210778,-0.1171
 8820,0.04062678,0.15760008,0.12717518,0.03739568,-0.03970288,-0.003034
 96,-0.03455982,0.03078155,0.19943065,-0.01342788,-0.42107412,-0.192980
 13,0.01443188,0.42237767,-0.37252676,0.22007546,0.00607177,-0.01175327
 ,0.00630593,-0.00764960,0.38106661,0.21523419,-0.14840329,0.02508976,-
 0.00014972,0.00072463,0.00071442,-0.22698572,0.15229062,-0.03050813,0.
 04866064,-0.05866064,0.03450449,-0.02241106,0.00604201,0.00673032,-0.0
 2444300,0.04854826,0.01399661,0.00657672,-0.00613787,-0.00125531,0.002
 11380,0.00049735,-0.00003014,-0.00187847,0.00178266,0.44000808,0.00877
 256,-0.04756039,0.04993072,0.00434187,-0.00754639,-0.00068056,-0.00493
 052,-0.00225136,0.00469083,0.29174418,0.39833122,-0.00633702,0.0499666
 3,-0.02814500,-0.00260897,0.00286021,0.00133814,0.00453962,0.00201719,
 -0.00407105,0.19703606,-0.06741056,0.51606831,-0.00189305,0.00534904,-
 0.00503091,-0.00012927,0.00028621,-0.00000752,0.00083910,0.00059103,-0
 .00071202,-0.28175663,-0.24181195,0.00607145,0.28702494,0.00209928,-0.
 00087886,0.00096792,-0.00005759,-0.00013058,0.00065774,-0.00018184,-0.
 00096120,0.00085567,-0.23890855,-0.23666938,0.04101441,0.25076977,0.24
 433245,-0.00279920,0.00389937,-0.00358714,0.00006082,0.00073096,0.0001
 6351,0.00044966,0.00093986,-0.00046393,0.03753618,0.07136063,-0.061074
 30,-0.01988450,-0.04373510,0.05046769,-0.00016104,-0.00297596,0.002145
 67,0.00083464,0.00008439,-0.00014799,-0.00010709,0.00010882,-0.0001801
 0,-0.12530152,-0.05670820,-0.17432261,-0.01160848,-0.00195486,-0.02840
 707,0.13799016,-0.00049300,-0.00850390,0.00341338,0.00010913,-0.000133
 94,0.00008962,-0.00022898,-0.00016280,0.00072494,-0.05245551,-0.057392
 51,-0.03143034,-0.01028895,-0.00102549,-0.02784226,0.05464112,0.047628
 95,-0.00025435,-0.00049201,0.00119671,0.00005528,0.00010959,-0.0002130
 0,-0.00009718,0.00064349,0.00017441,-0.21345287,-0.04932285,-0.3954101
 0,0.00866317,0.00233755,0.00764368,0.20612700,0.04927974,0.39486423,-0
 .04440704,0.00115793,0.02446940,0.00231623,-0.01162619,0.00085724,0.00
 251156,0.01307986,-0.01161720,-0.04566109,-0.00140794,-0.02437853,0.00
 752341,-0.01176621,0.01304411,-0.00164668,0.00871618,-0.00104105,0.079
 36360,0.00780127,-0.04557536,0.00730701,-0.01031065,0.01600761,-0.0017
 8522,0.00594567,-0.00123660,-0.00807801,-0.00719217,-0.04691119,0.0029
 8245,-0.00489516,-0.00466695,-0.00535345,0.00680469,0.01958969,-0.0025
 5552,0.00184636,0.06279280,0.01958620,-0.00493292,-0.03183760,0.003368
 44,0.00731339,-0.00863421,-0.01004459,-0.00496173,0.00843095,-0.017261
 51,-0.00856821,-0.02870599,0.01090034,-0.00209819,0.00685049,-0.005214
 91,0.00576492,-0.00825593,-0.00133397,0.00748274,0.06215229\\0.0000038
 0,-0.00003672,0.00003847,-0.00002058,0.00002711,-0.00002646,0.00000891
 ,0.00000883,-0.00002873,0.00002597,-0.00001122,0.00003053,-0.00001825,
 -0.00003367,0.00001027,-0.00001843,-0.00000433,-0.00002598,0.00001858,
 0.00004999,0.00000191\\\@


 THE GREAT THING ABOUT BEING IMPERFECT IS THE JOY IT BRINGS OTHERS.
   -- SIGN OUTSIDE LAKE AGASSIZ JR. HIGH SCHOOL, FARGO, N.D.
 Job cpu time:  0 days  0 hours  0 minutes 12.6 seconds.
 File lengths (MBytes):  RWF=      6 Int=      0 D2E=      0 Chk=      1 Scr=      1
 Normal termination of Gaussian 09 at Mon Mar  1 12:45:02 2021.
