 Entering Gaussian System, Link 0=g09
 Input=dimer.com
 Output=dimer.log
 Initial command:
 /home/student/g09/l1.exe /home/student/Aniruddha_1811022/Gau-2571.inp -scrdir=/home/student/Aniruddha_1811022/
 Entering Link 1 = /home/student/g09/l1.exe PID=      2573.
  
 Copyright (c) 1988,1990,1992,1993,1995,1998,2003,2009,2011,
            Gaussian, Inc.  All Rights Reserved.
  
 This is part of the Gaussian(R) 09 program.  It is based on
 the Gaussian(R) 03 system (copyright 2003, Gaussian, Inc.),
 the Gaussian(R) 98 system (copyright 1998, Gaussian, Inc.),
 the Gaussian(R) 94 system (copyright 1995, Gaussian, Inc.),
 the Gaussian 92(TM) system (copyright 1992, Gaussian, Inc.),
 the Gaussian 90(TM) system (copyright 1990, Gaussian, Inc.),
 the Gaussian 88(TM) system (copyright 1988, Gaussian, Inc.),
 the Gaussian 86(TM) system (copyright 1986, Carnegie Mellon
 University), and the Gaussian 82(TM) system (copyright 1983,
 Carnegie Mellon University). Gaussian is a federally registered
 trademark of Gaussian, Inc.
  
 This software contains proprietary and confidential information,
 including trade secrets, belonging to Gaussian, Inc.
  
 This software is provided under written license and may be
 used, copied, transmitted, or stored only in accord with that
 written license.
  
 The following legend is applicable only to US Government
 contracts under FAR:
  
                    RESTRICTED RIGHTS LEGEND
  
 Use, reproduction and disclosure by the US Government is
 subject to restrictions as set forth in subparagraphs (a)
 and (c) of the Commercial Computer Software - Restricted
 Rights clause in FAR 52.227-19.
  
 Gaussian, Inc.
 340 Quinnipiac St., Bldg. 40, Wallingford CT 06492
  
  
 ---------------------------------------------------------------
 Warning -- This program may not be used in any manner that
 competes with the business of Gaussian, Inc. or will provide
 assistance to any competitor of Gaussian, Inc.  The licensee
 of this program is prohibited from giving any competitor of
 Gaussian, Inc. access to this program.  By using this program,
 the user acknowledges that Gaussian, Inc. is engaged in the
 business of creating and licensing software in the field of
 computational chemistry and represents and warrants to the
 licensee that it is not a competitor of Gaussian, Inc. and that
 it will not use this program in any manner prohibited above.
 ---------------------------------------------------------------
  

 Cite this work as:
 Gaussian 09, Revision C.01,
 M. J. Frisch, G. W. Trucks, H. B. Schlegel, G. E. Scuseria, 
 M. A. Robb, J. R. Cheeseman, G. Scalmani, V. Barone, B. Mennucci, 
 G. A. Petersson, H. Nakatsuji, M. Caricato, X. Li, H. P. Hratchian, 
 A. F. Izmaylov, J. Bloino, G. Zheng, J. L. Sonnenberg, M. Hada, 
 M. Ehara, K. Toyota, R. Fukuda, J. Hasegawa, M. Ishida, T. Nakajima, 
 Y. Honda, O. Kitao, H. Nakai, T. Vreven, J. A. Montgomery, Jr., 
 J. E. Peralta, F. Ogliaro, M. Bearpark, J. J. Heyd, E. Brothers, 
 K. N. Kudin, V. N. Staroverov, T. Keith, R. Kobayashi, J. Normand, 
 K. Raghavachari, A. Rendell, J. C. Burant, S. S. Iyengar, J. Tomasi, 
 M. Cossi, N. Rega, J. M. Millam, M. Klene, J. E. Knox, J. B. Cross, 
 V. Bakken, C. Adamo, J. Jaramillo, R. Gomperts, R. E. Stratmann, 
 O. Yazyev, A. J. Austin, R. Cammi, C. Pomelli, J. W. Ochterski, 
 R. L. Martin, K. Morokuma, V. G. Zakrzewski, G. A. Voth, 
 P. Salvador, J. J. Dannenberg, S. Dapprich, A. D. Daniels, 
 O. Farkas, J. B. Foresman, J. V. Ortiz, J. Cioslowski, 
 and D. J. Fox, Gaussian, Inc., Wallingford CT, 2010.
 
 ******************************************
 Gaussian 09:  EM64L-G09RevC.01 23-Sep-2011
                 1-Mar-2021 
 ******************************************
 %chk=dimer.chk
 ---------------------------------------
 # hf/6-31g** geom=connectivity opt freq
 ---------------------------------------
 1/18=20,19=15,38=1,57=2/1,3;
 2/9=110,12=2,17=6,18=5,40=1/2;
 3/5=1,6=6,7=101,11=9,16=1,25=1,30=1,71=1/1,2,3;
 4//1;
 5/5=2,38=5/2;
 6/7=2,8=2,9=2,10=2,28=1/1;
 7//1,2,3,16;
 1/18=20,19=15/3(2);
 2/9=110/2;
 99//99;
 2/9=110/2;
 3/5=1,6=6,7=101,11=9,16=1,25=1,30=1,71=1/1,2,3;
 4/5=5,16=3/1;
 5/5=2,38=5/2;
 7//1,2,3,16;
 1/18=20,19=15/3(-5);
 2/9=110/2;
 6/7=2,8=2,9=2,10=2,19=2,28=1/1;
 99/9=1/99;
 -------------------
 Title Card Required
 -------------------
 Charge =  1 Multiplicity = 1
 Symbolic Z-Matrix:
 O                    -4.70691  -1.59309  -0.3407 
 H                    -4.23272  -0.91724  -0.83058 
 H                    -5.49058  -1.20873   0.05897 
 O                    -4.70593  -4.32557   1.9392 
 H                    -5.35515  -4.77383   2.48617 
 H                    -4.31445  -3.44917   1.92299 
 H                    -4.70633  -3.2357    1.02984 
 

 GradGradGradGradGradGradGradGradGradGradGradGradGradGradGradGradGradGrad
 Berny optimization.
 Initialization pass.
                           ----------------------------
                           !    Initial Parameters    !
                           ! (Angstroms and Degrees)  !
 --------------------------                            --------------------------
 ! Name  Definition              Value          Derivative Info.                !
 --------------------------------------------------------------------------------
 ! R1    R(1,2)                  0.96           estimate D2E/DX2                !
 ! R2    R(1,3)                  0.96           estimate D2E/DX2                !
 ! R3    R(1,7)                  2.1393         estimate D2E/DX2                !
 ! R4    R(4,5)                  0.96           estimate D2E/DX2                !
 ! R5    R(4,6)                  0.96           estimate D2E/DX2                !
 ! R6    R(6,7)                  0.9984         estimate D2E/DX2                !
 ! A1    A(2,1,3)              109.5            estimate D2E/DX2                !
 ! A2    A(2,1,7)              150.1505         estimate D2E/DX2                !
 ! A3    A(3,1,7)               92.3451         estimate D2E/DX2                !
 ! A4    A(5,4,6)              135.3713         estimate D2E/DX2                !
 ! A5    A(4,6,7)               92.88           estimate D2E/DX2                !
 ! A6    A(1,7,6)              137.5087         estimate D2E/DX2                !
 ! D1    D(2,1,3,7)           -159.2904         estimate D2E/DX2                !
 ! D2    D(2,1,7,6)             47.6643         estimate D2E/DX2                !
 ! D3    D(3,1,7,6)            -90.2884         estimate D2E/DX2                !
 ! D4    D(5,4,6,7)           -116.07           estimate D2E/DX2                !
 ! D5    D(4,6,7,1)            180.0            estimate D2E/DX2                !
 --------------------------------------------------------------------------------
 Trust Radius=3.00D-01 FncErr=1.00D-07 GrdErr=1.00D-07
 Number of steps in this run=     27 maximum allowed number of steps=    100.
 GradGradGradGradGradGradGradGradGradGradGradGradGradGradGradGradGradGrad

                          Input orientation:                          
 ---------------------------------------------------------------------
 Center     Atomic      Atomic             Coordinates (Angstroms)
 Number     Number       Type             X           Y           Z
 ---------------------------------------------------------------------
      1          8           0       -4.706914   -1.593086   -0.340703
      2          1           0       -4.232721   -0.917243   -0.830578
      3          1           0       -5.490578   -1.208730    0.058974
      4          8           0       -4.705935   -4.325573    1.939198
      5          1           0       -5.355149   -4.773834    2.486174
      6          1           0       -4.314455   -3.449171    1.922985
      7          1           0       -4.706325   -3.235700    1.029842
 ---------------------------------------------------------------------
                    Distance matrix (angstroms):
                    1          2          3          4          5
     1  O    0.000000
     2  H    0.960000   0.000000
     3  H    0.960000   1.567952   0.000000
     4  O    3.558713   4.417273   3.723656   0.000000
     5  H    4.304487   5.209029   4.315044   0.960000   0.000000
     6  H    2.953534   3.741584   3.142830   0.960000   1.776220
     7  H    2.139293   3.010101   2.380387   1.419420   2.215340
                    6          7
     6  H    0.000000
     7  H    0.998417   0.000000
 Stoichiometry    H5O2(1+)
 Framework group  C1[X(H5O2)]
 Deg. of freedom    15
 Full point group                 C1      NOp   1
 Largest Abelian subgroup         C1      NOp   1
 Largest concise Abelian subgroup C1      NOp   1
                         Standard orientation:                         
 ---------------------------------------------------------------------
 Center     Atomic      Atomic             Coordinates (Angstroms)
 Number     Number       Type             X           Y           Z
 ---------------------------------------------------------------------
      1          8           0        1.755539   -0.018057   -0.063932
      2          1           0        2.595368   -0.449390    0.109959
      3          1           0        1.784595    0.883830    0.263718
      4          8           0       -1.802759   -0.067010   -0.040278
      5          1           0       -2.506491    0.584860   -0.078054
      6          1           0       -1.112211   -0.291278    0.587773
      7          1           0       -0.383504   -0.047485   -0.049713
 ---------------------------------------------------------------------
 Rotational constants (GHZ):    253.3263521      4.2286022      4.1944390
 Standard basis: 6-31G(d,p) (6D, 7F)
 There are    55 symmetry adapted basis functions of A   symmetry.
 Integral buffers will be    131072 words long.
 Raffenetti 1 integral format.
 Two-electron integral symmetry is turned on.
    55 basis functions,    91 primitive gaussians,    55 cartesian basis functions
    10 alpha electrons       10 beta electrons
       nuclear repulsion energy        38.9659135262 Hartrees.
 NAtoms=    7 NActive=    7 NUniq=    7 SFac= 1.00D+00 NAtFMM=   60 NAOKFM=F Big=F
 One-electron integrals computed using PRISM.
 NBasis=    55 RedAO= T  NBF=    55
 NBsUse=    55 1.00D-06 NBFU=    55
 Harris functional with IExCor=  205 diagonalized for initial guess.
 ExpMin= 1.61D-01 ExpMax= 5.48D+03 ExpMxC= 8.25D+02 IAcc=1 IRadAn=         1 AccDes= 0.00D+00
 HarFok:  IExCor=  205 AccDes= 0.00D+00 IRadAn=         1 IDoV= 1
 ScaDFX=  1.000000  1.000000  1.000000  1.000000
 FoFCou: FMM=F IPFlag=           0 FMFlag=      100000 FMFlg1=           0
         NFxFlg=           0 DoJE=T BraDBF=F KetDBF=T FulRan=T
         Omega=  0.000000  0.000000  1.000000  0.000000  0.000000 ICntrl=     500 IOpCl=  0
         NMat0=    1 NMatS0=    1 NMatT0=    0 NMatD0=    1 NMtDS0=    0 NMtDT0=    0
         I1Cent=           4 NGrid=           0.
 Petite list used in FoFCou.
 Initial guess orbital symmetries:
       Occupied  (A) (A) (A) (A) (A) (A) (A) (A) (A) (A)
       Virtual   (A) (A) (A) (A) (A) (A) (A) (A) (A) (A) (A) (A)
                 (A) (A) (A) (A) (A) (A) (A) (A) (A) (A) (A) (A)
                 (A) (A) (A) (A) (A) (A) (A) (A) (A) (A) (A) (A)
                 (A) (A) (A) (A) (A) (A) (A) (A) (A)
 The electronic state of the initial guess is 1-A.
 Requested convergence on RMS density matrix=1.00D-08 within 128 cycles.
 Requested convergence on MAX density matrix=1.00D-06.
 Requested convergence on             energy=1.00D-06.
 No special actions if energy rises.
 Keep R1 ints in memory in canonical form, NReq=2034557.
 SCF Done:  E(RHF) =  -152.176518091     A.U. after   13 cycles
             Convg  =    0.3147D-08             -V/T =  2.0045

 **********************************************************************

            Population analysis using the SCF density.

 **********************************************************************

 Orbital symmetries:
       Occupied  (A) (A) (A) (A) (A) (A) (A) (A) (A) (A)
       Virtual   (A) (A) (A) (A) (A) (A) (A) (A) (A) (A) (A) (A)
                 (A) (A) (A) (A) (A) (A) (A) (A) (A) (A) (A) (A)
                 (A) (A) (A) (A) (A) (A) (A) (A) (A) (A) (A) (A)
                 (A) (A) (A) (A) (A) (A) (A) (A) (A)
 The electronic state is 1-A.
 Alpha  occ. eigenvalues --  -20.94761 -20.77990  -1.70753  -1.54847  -1.15042
 Alpha  occ. eigenvalues --   -0.92534  -0.88770  -0.86771  -0.77918  -0.71010
 Alpha virt. eigenvalues --   -0.23081  -0.00666   0.04891   0.04952   0.13074
 Alpha virt. eigenvalues --    0.49585   0.69518   0.80621   0.81349   0.84355
 Alpha virt. eigenvalues --    0.87877   0.89421   0.94896   1.03477   1.05562
 Alpha virt. eigenvalues --    1.06690   1.20313   1.22134   1.47410   1.58089
 Alpha virt. eigenvalues --    1.58917   1.63166   1.66982   1.73371   1.75943
 Alpha virt. eigenvalues --    1.99722   2.17985   2.24075   2.34716   2.35312
 Alpha virt. eigenvalues --    2.39576   2.61540   2.66126   2.74878   2.78783
 Alpha virt. eigenvalues --    2.80196   3.02428   3.17516   3.32770   3.47992
 Alpha virt. eigenvalues --    3.51215   3.53752   3.71084   4.00910   4.20377
          Condensed to atoms (all electrons):
              1          2          3          4          5          6
     1  O    8.046515   0.316263   0.305888  -0.002355   0.000002   0.000874
     2  H    0.316263   0.289569  -0.017364   0.000026   0.000000   0.000037
     3  H    0.305888  -0.017364   0.337087   0.000165   0.000001   0.000162
     4  O   -0.002355   0.000026   0.000165   7.822350   0.294601   0.270998
     5  H    0.000002   0.000000   0.000001   0.294601   0.216985  -0.007436
     6  H    0.000874   0.000037   0.000162   0.270998  -0.007436   0.320654
     7  H    0.044969  -0.001299  -0.003943   0.126898  -0.001302   0.021871
              7
     1  O    0.044969
     2  H   -0.001299
     3  H   -0.003943
     4  O    0.126898
     5  H   -0.001302
     6  H    0.021871
     7  H    0.268727
 Mulliken atomic charges:
              1
     1  O   -0.712156
     2  H    0.412768
     3  H    0.378004
     4  O   -0.512683
     5  H    0.497149
     6  H    0.392841
     7  H    0.544079
 Sum of Mulliken atomic charges =   1.00000
 Mulliken charges with hydrogens summed into heavy atoms:
              1
     1  O    0.078615
     4  O    0.921385
 Sum of Mulliken charges with hydrogens summed into heavy atoms =   1.00000
 Electronic spatial extent (au):  <R**2>=            261.0635
 Charge=              1.0000 electrons
 Dipole moment (field-independent basis, Debye):
    X=             -2.1365    Y=              1.8268    Z=              2.0654  Tot=              3.4882
 Quadrupole moment (field-independent basis, Debye-Ang):
   XX=              8.5259   YY=             -9.8425   ZZ=            -12.7612
   XY=             -3.2800   XZ=              1.2071   YZ=             -0.1092
 Traceless Quadrupole moment (field-independent basis, Debye-Ang):
   XX=             13.2185   YY=             -5.1499   ZZ=             -8.0686
   XY=             -3.2800   XZ=              1.2071   YZ=             -0.1092
 Octapole moment (field-independent basis, Debye-Ang**2):
  XXX=             -2.8371  YYY=              2.6365  ZZZ=              1.5749  XYY=              1.5572
  XXY=              9.2042  XXZ=              4.3722  XZZ=             -1.6319  YZZ=              0.1478
  YYZ=              0.9009  XYZ=              1.7604
 Hexadecapole moment (field-independent basis, Debye-Ang**3):
 XXXX=            -71.6518 YYYY=             -9.6653 ZZZZ=            -10.3345 XXXY=            -39.5129
 XXXZ=             13.2188 YYYX=             -0.7771 YYYZ=              0.3217 ZZZX=              0.2109
 ZZZY=             -0.1955 XXYY=            -29.5421 XXZZ=            -44.4399 YYZZ=             -3.5070
 XXYZ=             -0.4741 YYXZ=              1.1873 ZZXY=             -0.0935
 N-N= 3.896591352625D+01 E-N=-4.331786738822D+02  KE= 1.515017021209D+02
 Calling FoFJK, ICntrl=      2127 FMM=F ISym2X=0 I1Cent= 0 IOpClX= 0 NMat=1 NMatS=1 NMatT=0.
 ***** Axes restored to original set *****
 -------------------------------------------------------------------
 Center     Atomic                   Forces (Hartrees/Bohr)
 Number     Number              X              Y              Z
 -------------------------------------------------------------------
      1        8          -0.014400322   -0.011542253    0.027521777
      2        1          -0.004924961   -0.010200611    0.009016789
      3        1           0.013435430    0.004815576   -0.016997090
      4        8           0.049686843    0.045651164   -0.107094658
      5        1          -0.022711169    0.034336251    0.006554020
      6        1           0.030181200   -0.006738004    0.106231329
      7        1          -0.051267021   -0.056322124   -0.025232166
 -------------------------------------------------------------------
 Cartesian Forces:  Max     0.107094658 RMS     0.042671844

 GradGradGradGradGradGradGradGradGradGradGradGradGradGradGradGradGradGrad
 Berny optimization.
 Internal  Forces:  Max     0.167078541 RMS     0.049650566
 Search for a local minimum.
 Step number   1 out of a maximum of   27
 All quantities printed in internal units (Hartrees-Bohrs-Radians)
 Mixed Optimization -- RFO/linear search
 Second derivative matrix not updated -- first step.
 The second derivative matrix:
                          R1        R2        R3        R4        R5
           R1           0.55473
           R2           0.00000   0.55473
           R3           0.00000   0.00000   0.03449
           R4           0.00000   0.00000   0.00000   0.55473
           R5           0.00000   0.00000   0.00000   0.00000   0.55473
           R6           0.00000   0.00000   0.00000   0.00000   0.00000
           A1           0.00000   0.00000   0.00000   0.00000   0.00000
           A2           0.00000   0.00000   0.00000   0.00000   0.00000
           A3           0.00000   0.00000   0.00000   0.00000   0.00000
           A4           0.00000   0.00000   0.00000   0.00000   0.00000
           A5           0.00000   0.00000   0.00000   0.00000   0.00000
           A6           0.00000   0.00000   0.00000   0.00000   0.00000
           D1           0.00000   0.00000   0.00000   0.00000   0.00000
           D2           0.00000   0.00000   0.00000   0.00000   0.00000
           D3           0.00000   0.00000   0.00000   0.00000   0.00000
           D4           0.00000   0.00000   0.00000   0.00000   0.00000
           D5           0.00000   0.00000   0.00000   0.00000   0.00000
                          R6        A1        A2        A3        A4
           R6           0.17925
           A1           0.00000   0.16000
           A2           0.00000   0.00000   0.16000
           A3           0.00000   0.00000   0.00000   0.16000
           A4           0.00000   0.00000   0.00000   0.00000   0.16000
           A5           0.00000   0.00000   0.00000   0.00000   0.00000
           A6           0.00000   0.00000   0.00000   0.00000   0.00000
           D1           0.00000   0.00000   0.00000   0.00000   0.00000
           D2           0.00000   0.00000   0.00000   0.00000   0.00000
           D3           0.00000   0.00000   0.00000   0.00000   0.00000
           D4           0.00000   0.00000   0.00000   0.00000   0.00000
           D5           0.00000   0.00000   0.00000   0.00000   0.00000
                          A5        A6        D1        D2        D3
           A5           0.16000
           A6           0.00000   0.16000
           D1           0.00000   0.00000   0.01558
           D2           0.00000   0.00000   0.00000   0.00230
           D3           0.00000   0.00000   0.00000   0.00000   0.00230
           D4           0.00000   0.00000   0.00000   0.00000   0.00000
           D5           0.00000   0.00000   0.00000   0.00000   0.00000
                          D4        D5
           D4           0.01558
           D5           0.00000   0.00230
 ITU=  0
     Eigenvalues ---    0.00230   0.00230   0.01558   0.01683   0.03449
     Eigenvalues ---    0.12759   0.16000   0.16000   0.16000   0.16000
     Eigenvalues ---    0.17925   0.55473   0.55473   0.55473   0.55473
 RFO step:  Lambda=-1.32578652D-01 EMin= 2.30000000D-03
 Linear search not attempted -- first point.
 Maximum step size (   0.300) exceeded in Quadratic search.
    -- Step size scaled by   0.463
 Iteration  1 RMS(Cart)=  0.14297024 RMS(Int)=  0.01691831
 Iteration  2 RMS(Cart)=  0.04145976 RMS(Int)=  0.00067554
 Iteration  3 RMS(Cart)=  0.00078611 RMS(Int)=  0.00006038
 Iteration  4 RMS(Cart)=  0.00000043 RMS(Int)=  0.00006038
 Variable       Old X    -DE/DX   Delta X   Delta X   Delta X     New X
                                 (Linear)    (Quad)   (Total)
    R1        1.81414  -0.01422   0.00000  -0.00957  -0.00957   1.80457
    R2        1.81414  -0.01612   0.00000  -0.01085  -0.01085   1.80329
    R3        4.04268  -0.02551   0.00000  -0.07068  -0.07068   3.97200
    R4        1.81414   0.00306   0.00000   0.00206   0.00206   1.81620
    R5        1.81414  -0.08572   0.00000  -0.05772  -0.05772   1.75642
    R6        1.88674   0.01186   0.00000   0.01761   0.01761   1.90434
    A1        1.91114  -0.00893   0.00000  -0.01236  -0.01227   1.89886
    A2        2.62062  -0.00951   0.00000  -0.01578  -0.01584   2.60478
    A3        1.61173   0.01956   0.00000   0.03227   0.03232   1.64405
    A4        2.36267  -0.06237   0.00000  -0.09865  -0.09865   2.26402
    A5        1.62106  -0.16708   0.00000  -0.26428  -0.26428   1.35679
    A6        2.39998  -0.00422   0.00000  -0.00668  -0.00668   2.39330
    D1       -2.78014   0.00190   0.00000   0.00077   0.00060  -2.77954
    D2        0.83190   0.00299   0.00000   0.00678   0.00668   0.83858
    D3       -1.57583  -0.00457   0.00000  -0.01223  -0.01213  -1.58796
    D4       -2.02580   0.02979   0.00000   0.09306   0.09306  -1.93275
    D5        3.14159  -0.00055   0.00000  -0.00190  -0.00190   3.13970
         Item               Value     Threshold  Converged?
 Maximum Force            0.167079     0.000450     NO 
 RMS     Force            0.049651     0.000300     NO 
 Maximum Displacement     0.381250     0.001800     NO 
 RMS     Displacement     0.183345     0.001200     NO 
 Predicted change in Energy=-5.370535D-02
 GradGradGradGradGradGradGradGradGradGradGradGradGradGradGradGradGradGrad

                          Input orientation:                          
 ---------------------------------------------------------------------
 Center     Atomic      Atomic             Coordinates (Angstroms)
 Number     Number       Type             X           Y           Z
 ---------------------------------------------------------------------
      1          8           0       -4.735093   -1.677033   -0.275789
      2          1           0       -4.280858   -1.016872   -0.795172
      3          1           0       -5.507726   -1.279678    0.118868
      4          8           0       -4.676350   -4.233137    1.835285
      5          1           0       -5.445456   -4.594307    2.284426
      6          1           0       -4.213146   -3.442906    1.992981
      7          1           0       -4.653448   -3.259405    1.105293
 ---------------------------------------------------------------------
                    Distance matrix (angstroms):
                    1          2          3          4          5
     1  O    0.000000
     2  H    0.954935   0.000000
     3  H    0.954258   1.552334   0.000000
     4  O    3.315682   4.173736   3.515707   0.000000
     5  H    3.945858   4.861918   3.959834   0.961090   0.000000
     6  H    2.921994   3.696487   3.141304   0.929457   1.711506
     7  H    2.101893   2.963030   2.371106   1.217196   1.949254
                    6          7
     6  H    0.000000
     7  H    1.007734   0.000000
 Stoichiometry    H5O2(1+)
 Framework group  C1[X(H5O2)]
 Deg. of freedom    15
 Full point group                 C1      NOp   1
 Largest Abelian subgroup         C1      NOp   1
 Largest concise Abelian subgroup C1      NOp   1
                         Standard orientation:                         
 ---------------------------------------------------------------------
 Center     Atomic      Atomic             Coordinates (Angstroms)
 Number     Number       Type             X           Y           Z
 ---------------------------------------------------------------------
      1          8           0        1.638691   -0.009699   -0.064147
      2          1           0        2.478227   -0.454163    0.033476
      3          1           0        1.693875    0.846771    0.353013
      4          8           0       -1.676497   -0.066347   -0.055645
      5          1           0       -2.240685    0.711532   -0.072701
      6          1           0       -1.168073   -0.416186    0.639342
      7          1           0       -0.460895   -0.079589    0.005206
 ---------------------------------------------------------------------
 Rotational constants (GHZ):    218.4816554      4.8465791      4.7985326
 Standard basis: 6-31G(d,p) (6D, 7F)
 There are    55 symmetry adapted basis functions of A   symmetry.
 Integral buffers will be    131072 words long.
 Raffenetti 1 integral format.
 Two-electron integral symmetry is turned on.
    55 basis functions,    91 primitive gaussians,    55 cartesian basis functions
    10 alpha electrons       10 beta electrons
       nuclear repulsion energy        40.6781358714 Hartrees.
 NAtoms=    7 NActive=    7 NUniq=    7 SFac= 1.00D+00 NAtFMM=   60 NAOKFM=F Big=F
 One-electron integrals computed using PRISM.
 NBasis=    55 RedAO= T  NBF=    55
 NBsUse=    55 1.00D-06 NBFU=    55
 Initial guess read from the read-write file.
 B after Tr=     0.000000    0.000000    0.000000
         Rot=    1.000000    0.000000    0.000000    0.000000 Ang=   0.00 deg.
 Initial guess orbital symmetries:
       Occupied  (A) (A) (A) (A) (A) (A) (A) (A) (A) (A)
       Virtual   (A) (A) (A) (A) (A) (A) (A) (A) (A) (A) (A) (A)
                 (A) (A) (A) (A) (A) (A) (A) (A) (A) (A) (A) (A)
                 (A) (A) (A) (A) (A) (A) (A) (A) (A) (A) (A) (A)
                 (A) (A) (A) (A) (A) (A) (A) (A) (A)
 Harris functional with IExCor=  205 diagonalized for initial guess.
 ExpMin= 1.61D-01 ExpMax= 5.48D+03 ExpMxC= 8.25D+02 IAcc=1 IRadAn=         1 AccDes= 0.00D+00
 HarFok:  IExCor=  205 AccDes= 0.00D+00 IRadAn=         1 IDoV= 1
 ScaDFX=  1.000000  1.000000  1.000000  1.000000
 FoFCou: FMM=F IPFlag=           0 FMFlag=      100000 FMFlg1=           0
         NFxFlg=           0 DoJE=T BraDBF=F KetDBF=T FulRan=T
         Omega=  0.000000  0.000000  1.000000  0.000000  0.000000 ICntrl=     500 IOpCl=  0
         NMat0=    1 NMatS0=    1 NMatT0=    0 NMatD0=    1 NMtDS0=    0 NMtDT0=    0
         I1Cent=           4 NGrid=           0.
 Petite list used in FoFCou.
 Requested convergence on RMS density matrix=1.00D-08 within 128 cycles.
 Requested convergence on MAX density matrix=1.00D-06.
 Requested convergence on             energy=1.00D-06.
 No special actions if energy rises.
 Keep R1 ints in memory in canonical form, NReq=2034557.
 SCF Done:  E(RHF) =  -152.239972599     A.U. after   12 cycles
             Convg  =    0.9798D-08             -V/T =  2.0037
 Calling FoFJK, ICntrl=      2127 FMM=F ISym2X=0 I1Cent= 0 IOpClX= 0 NMat=1 NMatS=1 NMatT=0.
 ***** Axes restored to original set *****
 -------------------------------------------------------------------
 Center     Atomic                   Forces (Hartrees/Bohr)
 Number     Number              X              Y              Z
 -------------------------------------------------------------------
      1        8          -0.009152736   -0.011235718    0.025117120
      2        1          -0.002708655   -0.007017220    0.006045864
      3        1           0.007787277    0.005444063   -0.013967127
      4        8           0.023004785    0.046662136   -0.104418608
      5        1          -0.009531115    0.027080760    0.005439029
      6        1           0.050356938    0.010915901    0.113888886
      7        1          -0.059756495   -0.071849922   -0.032105165
 -------------------------------------------------------------------
 Cartesian Forces:  Max     0.113888886 RMS     0.044224878

 GradGradGradGradGradGradGradGradGradGradGradGradGradGradGradGradGradGrad
 Berny optimization.
 Using GEDIIS/GDIIS optimizer.
 Internal  Forces:  Max     0.190814234 RMS     0.050563899
 Search for a local minimum.
 Step number   2 out of a maximum of   27
 All quantities printed in internal units (Hartrees-Bohrs-Radians)
 Mixed Optimization -- RFO/linear search
 Update second derivatives using D2CorX and points    1    2
 DE= -6.35D-02 DEPred=-5.37D-02 R= 1.18D+00
 SS=  1.41D+00  RLast= 3.14D-01 DXNew= 5.0454D-01 9.4283D-01
 Trust test= 1.18D+00 RLast= 3.14D-01 DXMaxT set to 5.05D-01
 The second derivative matrix:
                          R1        R2        R3        R4        R5
           R1           0.53846
           R2          -0.02109   0.52736
           R3          -0.01511  -0.01974   0.02001
           R4           0.00965   0.01262   0.00932   0.54872
           R5          -0.11091  -0.14396  -0.10374   0.06635  -0.20234
           R6          -0.04034  -0.05330  -0.04045   0.02632  -0.27991
           A1          -0.00427  -0.00550  -0.00386   0.00245  -0.02895
           A2          -0.00402  -0.00513  -0.00350   0.00220  -0.02699
           A3           0.00754   0.00960   0.00650  -0.00407   0.05055
           A4          -0.05689  -0.07388  -0.05333   0.03413  -0.38852
           A5           0.05689   0.07756   0.06399  -0.04270   0.40633
           A6           0.00431   0.00574   0.00445  -0.00292   0.03010
           D1           0.00235   0.00310   0.00233  -0.00151   0.01628
           D2           0.00003   0.00003   0.00002  -0.00001   0.00017
           D3          -0.00016  -0.00021  -0.00016   0.00010  -0.00113
           D4           0.02627   0.03449   0.02570  -0.01662   0.18123
           D5          -0.00023  -0.00030  -0.00022   0.00014  -0.00157
                          R6        A1        A2        A3        A4
           R6           0.05964
           A1          -0.00991   0.15885
           A2          -0.00848  -0.00111   0.15890
           A3           0.01543   0.00209   0.00211   0.15597
           A4          -0.14434  -0.01482  -0.01379   0.02580  -0.03942
           A5           0.21416   0.01239   0.00854  -0.01419   0.21128
           A6           0.01365   0.00103   0.00084  -0.00150   0.01556
           D1           0.00675   0.00059   0.00051  -0.00094   0.00839
           D2           0.00005   0.00001   0.00001  -0.00001   0.00009
           D3          -0.00044  -0.00004  -0.00004   0.00007  -0.00058
           D4           0.07369   0.00660   0.00584  -0.01075   0.09329
           D5          -0.00065  -0.00006  -0.00005   0.00009  -0.00081
                          A5        A6        D1        D2        D3
           A5          -0.31166
           A6          -0.02614   0.15841
           D1          -0.01163  -0.00076   0.01519
           D2          -0.00006  -0.00001   0.00000   0.00230
           D3           0.00069   0.00005   0.00003   0.00000   0.00230
           D4          -0.12377  -0.00825  -0.00420  -0.00004   0.00028
           D5           0.00110   0.00007   0.00004   0.00000   0.00000
                          D4        D5
           D4          -0.03058
           D5           0.00040   0.00230
 ITU=  1  0
 Use linear search instead of GDIIS.
     Eigenvalues ---   -1.13228   0.00174   0.00230   0.00231   0.01672
     Eigenvalues ---    0.02605   0.04939   0.13021   0.16000   0.16000
     Eigenvalues ---    0.17508   0.31774   0.55460   0.55473   0.55473
 RFO step:  Lambda=-1.13476633D+00 EMin=-1.13227608D+00
 Mixed    1 eigenvectors in step.  Raw Step.Grad=  3.14D-02.
 RFO eigenvector is Hessian eigenvector with negative curvature.
 Taking step of  6.00D-01 in eigenvector direction(s).  Step.Grad=  2.10D-02.
 Skip linear search -- no minimum in search direction.
 Maximum step size (   0.505) exceeded in Quadratic search.
    -- Step size not scaled.
 Iteration  1 RMS(Cart)=  0.11505426 RMS(Int)=  0.05539360
 Iteration  2 RMS(Cart)=  0.11757981 RMS(Int)=  0.00575436
 Iteration  3 RMS(Cart)=  0.01188377 RMS(Int)=  0.00003852
 Iteration  4 RMS(Cart)=  0.00004928 RMS(Int)=  0.00000873
 Iteration  5 RMS(Cart)=  0.00000000 RMS(Int)=  0.00000873
 Variable       Old X    -DE/DX   Delta X   Delta X   Delta X     New X
                                 (Linear)    (Quad)   (Total)
    R1        1.80457  -0.00943   0.00000   0.05156   0.05156   1.85613
    R2        1.80329  -0.00981   0.00000   0.06779   0.06779   1.87108
    R3        3.97200  -0.02078   0.00000   0.07336   0.07336   4.04536
    R4        1.81620  -0.00001   0.00000  -0.03286  -0.03286   1.78333
    R5        1.75642  -0.05262   0.00000   0.35617   0.35617   2.11259
    R6        1.90434   0.02561   0.00000   0.18852   0.18852   2.09287
    A1        1.89886  -0.00774   0.00000   0.01557   0.01559   1.91445
    A2        2.60478  -0.00847   0.00000   0.01585   0.01587   2.62064
    A3        1.64405   0.01766   0.00000  -0.02796  -0.02794   1.61611
    A4        2.26402  -0.04532   0.00000   0.23946   0.23946   2.50348
    A5        1.35679  -0.19081   0.00000  -0.32659  -0.32659   1.03020
    A6        2.39330  -0.00578   0.00000  -0.02152  -0.02152   2.37178
    D1       -2.77954   0.00112   0.00000  -0.00918  -0.00918  -2.78872
    D2        0.83858   0.00298   0.00000   0.00161   0.00160   0.84018
    D3       -1.58796  -0.00452   0.00000  -0.00090  -0.00089  -1.58885
    D4       -1.93275   0.02124   0.00000  -0.13437  -0.13437  -2.06712
    D5        3.13970  -0.00048   0.00000   0.00119   0.00119   3.14088
         Item               Value     Threshold  Converged?
 Maximum Force            0.190814     0.000450     NO 
 RMS     Force            0.050564     0.000300     NO 
 Maximum Displacement     0.461805     0.001800     NO 
 RMS     Displacement     0.202304     0.001200     NO 
 Predicted change in Energy=-2.352061D-01
 GradGradGradGradGradGradGradGradGradGradGradGradGradGradGradGradGradGrad

                          Input orientation:                          
 ---------------------------------------------------------------------
 Center     Atomic      Atomic             Coordinates (Angstroms)
 Number     Number       Type             X           Y           Z
 ---------------------------------------------------------------------
      1          8           0       -4.762349   -1.723774   -0.272522
      2          1           0       -4.337067   -1.099728   -0.900583
      3          1           0       -5.500774   -1.266846    0.203198
      4          8           0       -4.745586   -4.162340    1.808330
      5          1           0       -5.535109   -4.624431    2.040049
      6          1           0       -4.025127   -3.383174    2.159925
      7          1           0       -4.606063   -3.243044    1.227495
 ---------------------------------------------------------------------
                    Distance matrix (angstroms):
                    1          2          3          4          5
     1  O    0.000000
     2  H    0.982222   0.000000
     3  H    0.990133   1.612599   0.000000
     4  O    3.205750   4.109098   3.395680   0.000000
     5  H    3.789321   4.744065   3.827346   0.943700   0.000000
     6  H    3.035441   3.831206   3.238079   1.117935   1.958350
     7  H    2.140714   3.032306   2.398968   1.096331   1.852458
                    6          7
     6  H    0.000000
     7  H    1.107497   0.000000
 Stoichiometry    H5O2(1+)
 Framework group  C1[X(H5O2)]
 Deg. of freedom    15
 Full point group                 C1      NOp   1
 Largest Abelian subgroup         C1      NOp   1
 Largest concise Abelian subgroup C1      NOp   1
                         Standard orientation:                         
 ---------------------------------------------------------------------
 Center     Atomic      Atomic             Coordinates (Angstroms)
 Number     Number       Type             X           Y           Z
 ---------------------------------------------------------------------
      1          8           0        1.590470    0.017542   -0.067155
      2          1           0        2.474760   -0.382630   -0.217664
      3          1           0        1.626953    0.622517    0.715812
      4          8           0       -1.615112   -0.015260   -0.067067
      5          1           0       -2.121070    0.780978   -0.042993
      6          1           0       -1.245681   -0.863721    0.560161
      7          1           0       -0.537828   -0.175395    0.058463
 ---------------------------------------------------------------------
 Rotational constants (GHZ):    171.8019870      5.1352200      5.0864647
 Standard basis: 6-31G(d,p) (6D, 7F)
 There are    55 symmetry adapted basis functions of A   symmetry.
 Integral buffers will be    131072 words long.
 Raffenetti 1 integral format.
 Two-electron integral symmetry is turned on.
    55 basis functions,    91 primitive gaussians,    55 cartesian basis functions
    10 alpha electrons       10 beta electrons
       nuclear repulsion energy        40.3591407061 Hartrees.
 NAtoms=    7 NActive=    7 NUniq=    7 SFac= 1.00D+00 NAtFMM=   60 NAOKFM=F Big=F
 One-electron integrals computed using PRISM.
 NBasis=    55 RedAO= T  NBF=    55
 NBsUse=    55 1.00D-06 NBFU=    55
 Initial guess read from the read-write file.
 B after Tr=     0.000000    0.000000    0.000000
         Rot=    1.000000    0.000000    0.000000    0.000000 Ang=   0.00 deg.
 Initial guess orbital symmetries:
       Occupied  (A) (A) (A) (A) (A) (A) (A) (A) (A) (A)
       Virtual   (A) (A) (A) (A) (A) (A) (A) (A) (A) (A) (A) (A)
                 (A) (A) (A) (A) (A) (A) (A) (A) (A) (A) (A) (A)
                 (A) (A) (A) (A) (A) (A) (A) (A) (A) (A) (A) (A)
                 (A) (A) (A) (A) (A) (A) (A) (A) (A)
 Harris functional with IExCor=  205 diagonalized for initial guess.
 ExpMin= 1.61D-01 ExpMax= 5.48D+03 ExpMxC= 8.25D+02 IAcc=1 IRadAn=         1 AccDes= 0.00D+00
 HarFok:  IExCor=  205 AccDes= 0.00D+00 IRadAn=         1 IDoV= 1
 ScaDFX=  1.000000  1.000000  1.000000  1.000000
 FoFCou: FMM=F IPFlag=           0 FMFlag=      100000 FMFlg1=           0
         NFxFlg=           0 DoJE=T BraDBF=F KetDBF=T FulRan=T
         Omega=  0.000000  0.000000  1.000000  0.000000  0.000000 ICntrl=     500 IOpCl=  0
         NMat0=    1 NMatS0=    1 NMatT0=    0 NMatD0=    1 NMtDS0=    0 NMtDT0=    0
         I1Cent=           4 NGrid=           0.
 Petite list used in FoFCou.
 Requested convergence on RMS density matrix=1.00D-08 within 128 cycles.
 Requested convergence on MAX density matrix=1.00D-06.
 Requested convergence on             energy=1.00D-06.
 No special actions if energy rises.
 Keep R1 ints in memory in canonical form, NReq=2034557.
 SCF Done:  E(RHF) =  -152.243662267     A.U. after   13 cycles
             Convg  =    0.4338D-08             -V/T =  2.0057
 Calling FoFJK, ICntrl=      2127 FMM=F ISym2X=0 I1Cent= 0 IOpClX= 0 NMat=1 NMatS=1 NMatT=0.
 ***** Axes restored to original set *****
 -------------------------------------------------------------------
 Center     Atomic                   Forces (Hartrees/Bohr)
 Number     Number              X              Y              Z
 -------------------------------------------------------------------
      1        8          -0.018200852    0.023761251    0.022210094
      2        1          -0.017854550   -0.021676835    0.025807319
      3        1           0.033742620   -0.009694423   -0.033376051
      4        8           0.149277690    0.156045673   -0.053944768
      5        1          -0.028041622    0.015204632    0.021273175
      6        1          -0.044479194   -0.094211057    0.055231625
      7        1          -0.074444092   -0.069429242   -0.037201394
 -------------------------------------------------------------------
 Cartesian Forces:  Max     0.156045673 RMS     0.062433001

 GradGradGradGradGradGradGradGradGradGradGradGradGradGradGradGradGradGrad
 Berny optimization.
 Using GEDIIS/GDIIS optimizer.
 Internal  Forces:  Max     0.199458819 RMS     0.070623195
 Search for a local minimum.
 Step number   3 out of a maximum of   27
 All quantities printed in internal units (Hartrees-Bohrs-Radians)
 Mixed Optimization -- RFO/linear search
 Update second derivatives using D2CorX and points    2    3
 The second derivative matrix:
                          R1        R2        R3        R4        R5
           R1           0.56491
           R2           0.01260   0.57029
           R3          -0.00656  -0.00830   0.03755
           R4          -0.00913  -0.01126   0.00423   0.56212
           R5           0.03203   0.03887  -0.03733  -0.03380   0.59783
           R6          -0.02489  -0.03208   0.00585   0.01808  -0.13996
           A1           0.00118   0.00151  -0.00044  -0.00131   0.00280
           A2          -0.00342  -0.00424   0.00020   0.00201  -0.01898
           A3           0.00236   0.00284   0.00042  -0.00068   0.01655
           A4          -0.01590  -0.02012   0.00152   0.00777  -0.11012
           A5           0.00939   0.01478  -0.01238  -0.01301   0.06623
           A6           0.00189   0.00249  -0.00071  -0.00149   0.01105
           D1           0.00108   0.00138  -0.00064  -0.00077   0.00588
           D2           0.00090   0.00113  -0.00017  -0.00066   0.00424
           D3          -0.00083  -0.00104   0.00018   0.00061  -0.00396
           D4           0.00683   0.00878  -0.00574  -0.00448   0.04175
           D5           0.00009   0.00012   0.00003  -0.00007   0.00037
                          R6        A1        A2        A3        A4
           R6           0.18408
           A1          -0.00209   0.16017
           A2           0.00167  -0.00059   0.15974
           A3           0.00009   0.00053   0.00094   0.15829
           A4          -0.00416  -0.00170  -0.00299   0.00537   0.14118
           A5           0.01594  -0.00426  -0.00701   0.01330  -0.03403
           A6          -0.00001   0.00004  -0.00026   0.00028  -0.00052
           D1          -0.00114   0.00004  -0.00012   0.00007  -0.00078
           D2          -0.00076   0.00013  -0.00009  -0.00004   0.00011
           D3           0.00072  -0.00012   0.00008   0.00004  -0.00006
           D4          -0.00795  -0.00023  -0.00057   0.00056  -0.00763
           D5          -0.00005   0.00003  -0.00001  -0.00002   0.00010
                          A5        A6        D1        D2        D3
           A5           0.02546
           A6          -0.00371   0.15993
           D1           0.00121   0.00011   0.01570
           D2           0.00033   0.00005   0.00004   0.00234
           D3          -0.00040  -0.00005  -0.00004  -0.00004   0.00234
           D4           0.01497   0.00099   0.00109   0.00013  -0.00017
           D5          -0.00008   0.00000   0.00000   0.00001  -0.00001
                          D4        D5
           D4           0.02652
           D5          -0.00008   0.00230
 ITU=  0  1  0
 Use linear search instead of GDIIS.
     Eigenvalues ---    0.00147   0.00230   0.00230   0.01628   0.02457
     Eigenvalues ---    0.03779   0.09071   0.13022   0.16000   0.16007
     Eigenvalues ---    0.17795   0.54454   0.55463   0.55473   0.72080
 RFO step:  Lambda=-2.05023732D-01 EMin= 1.46726289D-03
 Quartic linear search produced a step of -0.47354.
 Maximum step size (   0.505) exceeded in Quadratic search.
    -- Step size scaled by   0.546
 Iteration  1 RMS(Cart)=  0.21513172 RMS(Int)=  0.03541914
 Iteration  2 RMS(Cart)=  0.08218115 RMS(Int)=  0.00276211
 Iteration  3 RMS(Cart)=  0.00386963 RMS(Int)=  0.00014940
 Iteration  4 RMS(Cart)=  0.00001038 RMS(Int)=  0.00014934
 Iteration  5 RMS(Cart)=  0.00000000 RMS(Int)=  0.00014934
 Variable       Old X    -DE/DX   Delta X   Delta X   Delta X     New X
                                 (Linear)    (Quad)   (Total)
    R1        1.85613  -0.03800  -0.02442  -0.01274  -0.03715   1.81897
    R2        1.87108  -0.04567  -0.03210  -0.01290  -0.04500   1.82608
    R3        4.04536  -0.01549  -0.03474  -0.07765  -0.11239   3.93297
    R4        1.78333   0.02124   0.01556  -0.00137   0.01419   1.79753
    R5        2.11259  -0.18721  -0.16866  -0.07328  -0.24195   1.87065
    R6        2.09287   0.04951  -0.08927   0.04020  -0.04908   2.04379
    A1        1.91445  -0.01200  -0.00738  -0.02139  -0.02852   1.88593
    A2        2.62064  -0.00567  -0.00751  -0.02601  -0.03361   2.58703
    A3        1.61611   0.01892   0.01323   0.05054   0.06396   1.68007
    A4        2.50348  -0.04873  -0.11339  -0.15070  -0.26409   2.23939
    A5        1.03020  -0.19946   0.15465  -0.46322  -0.30857   0.72162
    A6        2.37178  -0.00747   0.01019  -0.01230  -0.00211   2.36966
    D1       -2.78872   0.00000   0.00435   0.00487   0.00883  -2.77989
    D2        0.84018   0.00157  -0.00076   0.00843   0.00742   0.84760
    D3       -1.58885  -0.00326   0.00042  -0.01271  -0.01204  -1.60089
    D4       -2.06712   0.01753   0.06363   0.09046   0.15409  -1.91302
    D5        3.14088  -0.00068  -0.00056  -0.00150  -0.00206   3.13882
         Item               Value     Threshold  Converged?
 Maximum Force            0.199459     0.000450     NO 
 RMS     Force            0.070623     0.000300     NO 
 Maximum Displacement     0.776291     0.001800     NO 
 RMS     Displacement     0.292275     0.001200     NO 
 Predicted change in Energy=-1.113504D-01
 GradGradGradGradGradGradGradGradGradGradGradGradGradGradGradGradGradGrad

                          Input orientation:                          
 ---------------------------------------------------------------------
 Center     Atomic      Atomic             Coordinates (Angstroms)
 Number     Number       Type             X           Y           Z
 ---------------------------------------------------------------------
      1          8           0       -4.791470   -1.857103   -0.163740
      2          1           0       -4.374088   -1.219174   -0.751415
      3          1           0       -5.562422   -1.434843    0.237638
      4          8           0       -4.645634   -3.979611    1.640495
      5          1           0       -5.548025   -4.213636    1.829504
      6          1           0       -4.018222   -3.454622    2.197854
      7          1           0       -4.572215   -3.344349    1.275557
 ---------------------------------------------------------------------
                    Distance matrix (angstroms):
                    1          2          3          4          5
     1  O    0.000000
     2  H    0.962560   0.000000
     3  H    0.966320   1.561050   0.000000
     4  O    2.789547   3.662646   3.047023   0.000000
     5  H    3.177837   4.123842   3.202489   0.951210   0.000000
     6  H    2.954168   3.717802   3.210375   0.989903   1.747020
     7  H    2.081238   2.943508   2.388305   0.736293   1.419409
                    6          7
     6  H    0.000000
     7  H    1.081526   0.000000
 Stoichiometry    H5O2(1+)
 Framework group  C1[X(H5O2)]
 Deg. of freedom    15
 Full point group                 C1      NOp   1
 Largest Abelian subgroup         C1      NOp   1
 Largest concise Abelian subgroup C1      NOp   1
                         Standard orientation:                         
 ---------------------------------------------------------------------
 Center     Atomic      Atomic             Coordinates (Angstroms)
 Number     Number       Type             X           Y           Z
 ---------------------------------------------------------------------
      1          8           0        1.394529   -0.004079   -0.057266
      2          1           0        2.243410   -0.454233   -0.114578
      3          1           0        1.483431    0.723881    0.571976
      4          8           0       -1.394760   -0.032749   -0.082149
      5          1           0       -1.657751    0.879995   -0.031796
      6          1           0       -1.388075   -0.710127    0.639670
      7          1           0       -0.679166   -0.144892    0.050046
 ---------------------------------------------------------------------
 Rotational constants (GHZ):    171.6162585      6.6871061      6.5847559
 Standard basis: 6-31G(d,p) (6D, 7F)
 There are    55 symmetry adapted basis functions of A   symmetry.
 Integral buffers will be    131072 words long.
 Raffenetti 1 integral format.
 Two-electron integral symmetry is turned on.
    55 basis functions,    91 primitive gaussians,    55 cartesian basis functions
    10 alpha electrons       10 beta electrons
       nuclear repulsion energy        45.2472068834 Hartrees.
 NAtoms=    7 NActive=    7 NUniq=    7 SFac= 1.00D+00 NAtFMM=   60 NAOKFM=F Big=F
 One-electron integrals computed using PRISM.
 NBasis=    55 RedAO= T  NBF=    55
 NBsUse=    55 1.00D-06 NBFU=    55
 Initial guess read from the read-write file.
 B after Tr=     0.000000    0.000000    0.000000
         Rot=    1.000000    0.000000    0.000000    0.000000 Ang=   0.00 deg.
 Initial guess orbital symmetries:
       Occupied  (A) (A) (A) (A) (A) (A) (A) (A) (A) (A)
       Virtual   (A) (A) (A) (A) (A) (A) (A) (A) (A) (A) (A) (A)
                 (A) (A) (A) (A) (A) (A) (A) (A) (A) (A) (A) (A)
                 (A) (A) (A) (A) (A) (A) (A) (A) (A) (A) (A) (A)
                 (A) (A) (A) (A) (A) (A) (A) (A) (A)
 Harris functional with IExCor=  205 diagonalized for initial guess.
 ExpMin= 1.61D-01 ExpMax= 5.48D+03 ExpMxC= 8.25D+02 IAcc=1 IRadAn=         1 AccDes= 0.00D+00
 HarFok:  IExCor=  205 AccDes= 0.00D+00 IRadAn=         1 IDoV= 1
 ScaDFX=  1.000000  1.000000  1.000000  1.000000
 FoFCou: FMM=F IPFlag=           0 FMFlag=      100000 FMFlg1=           0
         NFxFlg=           0 DoJE=T BraDBF=F KetDBF=T FulRan=T
         Omega=  0.000000  0.000000  1.000000  0.000000  0.000000 ICntrl=     500 IOpCl=  0
         NMat0=    1 NMatS0=    1 NMatT0=    0 NMatD0=    1 NMtDS0=    0 NMtDT0=    0
         I1Cent=           4 NGrid=           0.
 Petite list used in FoFCou.
 Requested convergence on RMS density matrix=1.00D-08 within 128 cycles.
 Requested convergence on MAX density matrix=1.00D-06.
 Requested convergence on             energy=1.00D-06.
 No special actions if energy rises.
 Keep R1 ints in memory in canonical form, NReq=2034557.
 SCF Done:  E(RHF) =  -152.222474061     A.U. after   12 cycles
             Convg  =    0.4393D-08             -V/T =  1.9982
 Calling FoFJK, ICntrl=      2127 FMM=F ISym2X=0 I1Cent= 0 IOpClX= 0 NMat=1 NMatS=1 NMatT=0.
 ***** Axes restored to original set *****
 -------------------------------------------------------------------
 Center     Atomic                   Forces (Hartrees/Bohr)
 Number     Number              X              Y              Z
 -------------------------------------------------------------------
      1        8          -0.011789319    0.010868729    0.016107502
      2        1          -0.008914865   -0.012001296    0.011607550
      3        1           0.018124592   -0.000986512   -0.019119588
      4        8           0.010970166   -0.407150293    0.278202570
      5        1          -0.005777635   -0.000398435    0.019762448
      6        1          -0.005576962   -0.053609735    0.061183833
      7        1           0.002964024    0.463277541   -0.367744316
 -------------------------------------------------------------------
 Cartesian Forces:  Max     0.463277541 RMS     0.169284436

 GradGradGradGradGradGradGradGradGradGradGradGradGradGradGradGradGradGrad
 Berny optimization.
 Using GEDIIS/GDIIS optimizer.
 Internal  Forces:  Max     0.958319453 RMS     0.248232343
 Search for a local minimum.
 Step number   4 out of a maximum of   27
 All quantities printed in internal units (Hartrees-Bohrs-Radians)
 Mixed Optimization -- RFO/linear search
 Update second derivatives using D2CorX and points    2    4    3
 DE=  2.12D-02 DEPred=-1.11D-01 R=-1.90D-01
 Trust test=-1.90D-01 RLast= 5.22D-01 DXMaxT set to 2.52D-01
 The second derivative matrix:
                          R1        R2        R3        R4        R5
           R1           0.54635
           R2          -0.01040   0.54179
           R3          -0.00015  -0.00038   0.03582
           R4           0.00347   0.00436  -0.00008   0.55356
           R5          -0.05159  -0.06503  -0.00372   0.02339   0.26746
           R6           0.00521   0.00462   0.00629  -0.00146   0.10195
           A1          -0.00137  -0.00165   0.00045   0.00042  -0.00852
           A2          -0.00153  -0.00190  -0.00038   0.00073  -0.00975
           A3           0.00251   0.00302   0.00027  -0.00079   0.01622
           A4          -0.01446  -0.01837   0.00168   0.00685  -0.09725
           A5           0.05025   0.06327   0.01234  -0.03754   0.63149
           A6           0.00063   0.00094  -0.00029  -0.00064   0.00531
           D1           0.00009   0.00015  -0.00034  -0.00010   0.00103
           D2           0.00004   0.00006   0.00013  -0.00008   0.00043
           D3           0.00004   0.00003  -0.00007   0.00002   0.00044
           D4          -0.00079  -0.00059  -0.00426   0.00060  -0.00389
           D5           0.00005   0.00006   0.00008  -0.00004   0.00051
                          R6        A1        A2        A3        A4
           R6           0.37840
           A1           0.00240   0.15982
           A2           0.00025  -0.00033   0.15956
           A3          -0.00236   0.00055   0.00091   0.15831
           A4           0.00811  -0.00148  -0.00304   0.00523   0.14195
           A5           0.82162   0.00262  -0.00527   0.00504   0.01516
           A6           0.00186  -0.00014  -0.00013   0.00029  -0.00044
           D1          -0.00041  -0.00010  -0.00003   0.00009  -0.00076
           D2           0.00076   0.00002   0.00000  -0.00004   0.00018
           D3           0.00045   0.00000   0.00000   0.00002  -0.00005
           D4          -0.02150  -0.00132   0.00003   0.00085  -0.00859
           D5           0.00083   0.00002   0.00000  -0.00002   0.00015
                          A5        A6        D1        D2        D3
           A5           3.06258
           A6          -0.00155   0.15985
           D1           0.00021   0.00005   0.01565
           D2           0.00265   0.00000  -0.00001   0.00230
           D3           0.00178   0.00000   0.00000   0.00000   0.00230
           D4          -0.06116   0.00049   0.00078  -0.00024   0.00006
           D5           0.00290   0.00000  -0.00001   0.00000   0.00000
                          D4        D5
           D4           0.02615
           D5          -0.00019   0.00230
 ITU= -1  0  1  0
 Use linear search instead of GDIIS.
     Eigenvalues ---    0.00204   0.00230   0.00231   0.01645   0.02315
     Eigenvalues ---    0.03687   0.13151   0.14045   0.16000   0.16043
     Eigenvalues ---    0.25981   0.55427   0.55473   0.55594   3.42514
 RFO step:  Lambda=-2.99374504D-01 EMin= 2.03922537D-03
 Quartic linear search produced a step of -0.46470.
 Maximum step size (   0.252) exceeded in Quadratic search.
    -- Step size scaled by   0.288
 Iteration  1 RMS(Cart)=  0.15179574 RMS(Int)=  0.00715465
 Iteration  2 RMS(Cart)=  0.00924056 RMS(Int)=  0.00007739
 Iteration  3 RMS(Cart)=  0.00005254 RMS(Int)=  0.00006969
 Iteration  4 RMS(Cart)=  0.00000000 RMS(Int)=  0.00006969
 Variable       Old X    -DE/DX   Delta X   Delta X   Delta X     New X
                                 (Linear)    (Quad)   (Total)
    R1        1.81897  -0.01891   0.01727  -0.03168  -0.01442   1.80456
    R2        1.82608  -0.02283   0.02091  -0.03907  -0.01816   1.80792
    R3        3.93297  -0.00719   0.05223  -0.05144   0.00078   3.93375
    R4        1.79753   0.00951  -0.00660   0.01556   0.00897   1.80649
    R5        1.87065   0.04508   0.11243  -0.17861  -0.06618   1.80447
    R6        2.04379   0.35310   0.02281   0.05405   0.07686   2.12065
    A1        1.88593  -0.00889   0.01326  -0.01733  -0.00420   1.88173
    A2        2.58703  -0.00535   0.01562  -0.01620  -0.00055   2.58648
    A3        1.68007   0.01572  -0.02972   0.03559   0.00577   1.68585
    A4        2.23939  -0.03012   0.12272  -0.13824  -0.01552   2.22387
    A5        0.72162   0.95832   0.14339   0.04909   0.19248   0.91410
    A6        2.36966  -0.00641   0.00098  -0.00297  -0.00198   2.36768
    D1       -2.77989  -0.00020  -0.00410   0.00271  -0.00121  -2.78110
    D2        0.84760   0.00262  -0.00345   0.00414   0.00081   0.84841
    D3       -1.60089  -0.00259   0.00559  -0.00693  -0.00145  -1.60234
    D4       -1.91302  -0.01027  -0.07161   0.06277  -0.00883  -1.92186
    D5        3.13882   0.00047   0.00096  -0.00102  -0.00006   3.13876
         Item               Value     Threshold  Converged?
 Maximum Force            0.958319     0.000450     NO 
 RMS     Force            0.248232     0.000300     NO 
 Maximum Displacement     0.323788     0.001800     NO 
 RMS     Displacement     0.147836     0.001200     NO 
 Predicted change in Energy=-1.273171D-01
 GradGradGradGradGradGradGradGradGradGradGradGradGradGradGradGradGradGrad

                          Input orientation:                          
 ---------------------------------------------------------------------
 Center     Atomic      Atomic             Coordinates (Angstroms)
 Number     Number       Type             X           Y           Z
 ---------------------------------------------------------------------
      1          8           0       -4.779303   -1.787057   -0.212995
      2          1           0       -4.342739   -1.143922   -0.767686
      3          1           0       -5.550288   -1.368817    0.169039
      4          8           0       -4.644507   -4.076149    1.721999
      5          1           0       -5.514431   -4.357798    2.000846
      6          1           0       -4.066626   -3.456187    2.161887
      7          1           0       -4.614184   -3.313408    1.192803
 ---------------------------------------------------------------------
                    Distance matrix (angstroms):
                    1          2          3          4          5
     1  O    0.000000
     2  H    0.954931   0.000000
     3  H    0.956710   1.544735   0.000000
     4  O    3.000386   3.858439   3.249888   0.000000
     5  H    3.471342   4.400754   3.505825   0.955955   0.000000
     6  H    2.988975   3.742353   3.244967   0.954882   1.713177
     7  H    2.081653   2.936643   2.388685   0.928839   1.598164
                    6          7
     6  H    0.000000
     7  H    1.122198   0.000000
 Stoichiometry    H5O2(1+)
 Framework group  C1[X(H5O2)]
 Deg. of freedom    15
 Full point group                 C1      NOp   1
 Largest Abelian subgroup         C1      NOp   1
 Largest concise Abelian subgroup C1      NOp   1
                         Standard orientation:                         
 ---------------------------------------------------------------------
 Center     Atomic      Atomic             Coordinates (Angstroms)
 Number     Number       Type             X           Y           Z
 ---------------------------------------------------------------------
      1          8           0        1.492804   -0.002329   -0.060380
      2          1           0        2.328463   -0.464354   -0.070397
      3          1           0        1.586389    0.759523    0.510686
      4          8           0       -1.507230   -0.046034   -0.074436
      5          1           0       -1.875924    0.835067   -0.034747
      6          1           0       -1.338674   -0.637902    0.655688
      7          1           0       -0.584843   -0.105427    0.017300
 ---------------------------------------------------------------------
 Rotational constants (GHZ):    182.5851925      5.8425527      5.7671022
 Standard basis: 6-31G(d,p) (6D, 7F)
 There are    55 symmetry adapted basis functions of A   symmetry.
 Integral buffers will be    131072 words long.
 Raffenetti 1 integral format.
 Two-electron integral symmetry is turned on.
    55 basis functions,    91 primitive gaussians,    55 cartesian basis functions
    10 alpha electrons       10 beta electrons
       nuclear repulsion energy        43.0664282283 Hartrees.
 NAtoms=    7 NActive=    7 NUniq=    7 SFac= 1.00D+00 NAtFMM=   60 NAOKFM=F Big=F
 One-electron integrals computed using PRISM.
 NBasis=    55 RedAO= T  NBF=    55
 NBsUse=    55 1.00D-06 NBFU=    55
 Initial guess read from the read-write file.
 B after Tr=     0.000000    0.000000    0.000000
         Rot=    1.000000    0.000000    0.000000    0.000000 Ang=   0.00 deg.
 Initial guess orbital symmetries:
       Occupied  (A) (A) (A) (A) (A) (A) (A) (A) (A) (A)
       Virtual   (A) (A) (A) (A) (A) (A) (A) (A) (A) (A) (A) (A)
                 (A) (A) (A) (A) (A) (A) (A) (A) (A) (A) (A) (A)
                 (A) (A) (A) (A) (A) (A) (A) (A) (A) (A) (A) (A)
                 (A) (A) (A) (A) (A) (A) (A) (A) (A)
 Harris functional with IExCor=  205 diagonalized for initial guess.
 ExpMin= 1.61D-01 ExpMax= 5.48D+03 ExpMxC= 8.25D+02 IAcc=1 IRadAn=         1 AccDes= 0.00D+00
 HarFok:  IExCor=  205 AccDes= 0.00D+00 IRadAn=         1 IDoV= 1
 ScaDFX=  1.000000  1.000000  1.000000  1.000000
 FoFCou: FMM=F IPFlag=           0 FMFlag=      100000 FMFlg1=           0
         NFxFlg=           0 DoJE=T BraDBF=F KetDBF=T FulRan=T
         Omega=  0.000000  0.000000  1.000000  0.000000  0.000000 ICntrl=     500 IOpCl=  0
         NMat0=    1 NMatS0=    1 NMatT0=    0 NMatD0=    1 NMtDS0=    0 NMtDT0=    0
         I1Cent=           4 NGrid=           0.
 Petite list used in FoFCou.
 Requested convergence on RMS density matrix=1.00D-08 within 128 cycles.
 Requested convergence on MAX density matrix=1.00D-06.
 Requested convergence on             energy=1.00D-06.
 No special actions if energy rises.
 Keep R1 ints in memory in canonical form, NReq=2034557.
 SCF Done:  E(RHF) =  -152.314453389     A.U. after   12 cycles
             Convg  =    0.3120D-08             -V/T =  2.0021
 Calling FoFJK, ICntrl=      2127 FMM=F ISym2X=0 I1Cent= 0 IOpClX= 0 NMat=1 NMatS=1 NMatT=0.
 ***** Axes restored to original set *****
 -------------------------------------------------------------------
 Center     Atomic                   Forces (Hartrees/Bohr)
 Number     Number              X              Y              Z
 -------------------------------------------------------------------
      1        8          -0.008642392   -0.000952881    0.019608196
      2        1          -0.003925280   -0.007432652    0.005985143
      3        1           0.009879769    0.002300197   -0.013950361
      4        8           0.033891384    0.000623874   -0.004902892
      5        1          -0.002763690    0.008400568    0.015463420
      6        1           0.017504343   -0.029884203    0.081675000
      7        1          -0.045944133    0.026945098   -0.103878507
 -------------------------------------------------------------------
 Cartesian Forces:  Max     0.103878507 RMS     0.033702031

 GradGradGradGradGradGradGradGradGradGradGradGradGradGradGradGradGradGrad
 Berny optimization.
 Using GEDIIS/GDIIS optimizer.
 Internal  Forces:  Max     0.106033982 RMS     0.029117303
 Search for a local minimum.
 Step number   5 out of a maximum of   27
 All quantities printed in internal units (Hartrees-Bohrs-Radians)
 Mixed Optimization -- RFO/linear search
 Update second derivatives using D2CorX and points    2    4    3    5
 DE= -7.08D-02 DEPred=-1.27D-01 R= 5.56D-01
 SS=  1.41D+00  RLast= 4.85D-01 DXNew= 4.2426D-01 1.4560D+00
 Trust test= 5.56D-01 RLast= 4.85D-01 DXMaxT set to 4.24D-01
 The second derivative matrix:
                          R1        R2        R3        R4        R5
           R1           0.55343
           R2          -0.00196   0.55188
           R3           0.00133   0.00132   0.03565
           R4          -0.00077  -0.00077  -0.00073   0.55629
           R5          -0.01518  -0.02127  -0.00121   0.00094   0.42589
           R6           0.01328   0.01470  -0.00329  -0.00672   0.07180
           A1           0.00005   0.00002   0.00076  -0.00039  -0.00161
           A2          -0.00185  -0.00231  -0.00037   0.00100  -0.01194
           A3           0.00165   0.00205  -0.00006  -0.00040   0.01260
           A4          -0.00805  -0.01086   0.00202   0.00341  -0.07297
           A5           0.04752   0.06210  -0.01455  -0.03895   0.41961
           A6           0.00059   0.00088  -0.00005  -0.00059   0.00579
           D1           0.00005   0.00011  -0.00031  -0.00010   0.00132
           D2           0.00041   0.00050   0.00017  -0.00031   0.00222
           D3          -0.00007  -0.00011  -0.00010   0.00012  -0.00053
           D4          -0.00760  -0.00852  -0.00428   0.00409  -0.02573
           D5           0.00025   0.00029   0.00008  -0.00015   0.00122
                          R6        A1        A2        A3        A4
           R6           0.21452
           A1           0.00332   0.16011
           A2          -0.00096  -0.00037   0.15959
           A3          -0.00222   0.00034   0.00094   0.15840
           A4          -0.00391  -0.00022  -0.00309   0.00395   0.14502
           A5           0.34299   0.00073  -0.01217   0.01844  -0.00718
           A6           0.00372  -0.00012  -0.00016   0.00038   0.00028
           D1           0.00061  -0.00011  -0.00004   0.00012  -0.00069
           D2           0.00090   0.00008  -0.00001  -0.00009   0.00041
           D3          -0.00049  -0.00002   0.00001   0.00002  -0.00016
           D4          -0.00005  -0.00266   0.00005   0.00228  -0.01124
           D5           0.00031   0.00006   0.00000  -0.00006   0.00025
                          A5        A6        D1        D2        D3
           A5           0.85181
           A6          -0.00859   0.15967
           D1           0.00215   0.00001   0.01564
           D2           0.00316   0.00001  -0.00001   0.00232
           D3          -0.00120   0.00001   0.00000  -0.00001   0.00230
           D4          -0.01298  -0.00041   0.00067  -0.00045   0.00019
           D5           0.00140   0.00001  -0.00001   0.00001   0.00000
                          D4        D5
           D4           0.02803
           D5          -0.00026   0.00231
 ITU=  1 -1  0  1  0
 Use linear search instead of GDIIS.
     Eigenvalues ---    0.00230   0.00230   0.00521   0.01641   0.02454
     Eigenvalues ---    0.03851   0.12379   0.13618   0.16000   0.16031
     Eigenvalues ---    0.26959   0.55444   0.55475   0.55712   1.22890
 RFO step:  Lambda=-6.62288896D-02 EMin= 2.29848395D-03
 Quartic linear search produced a step of  0.17108.
 Maximum step size (   0.424) exceeded in Quadratic search.
    -- Step size scaled by   0.593
 Iteration  1 RMS(Cart)=  0.08007267 RMS(Int)=  0.04742826
 Iteration  2 RMS(Cart)=  0.05073537 RMS(Int)=  0.00065884
 Iteration  3 RMS(Cart)=  0.00087076 RMS(Int)=  0.00021141
 Iteration  4 RMS(Cart)=  0.00000054 RMS(Int)=  0.00021141
 Variable       Old X    -DE/DX   Delta X   Delta X   Delta X     New X
                                 (Linear)    (Quad)   (Total)
    R1        1.80456  -0.01028  -0.00882  -0.00188  -0.01070   1.79386
    R2        1.80792  -0.01253  -0.01081  -0.00032  -0.01113   1.79679
    R3        3.93375  -0.01211  -0.01909  -0.05342  -0.07251   3.86125
    R4        1.80649   0.00455   0.00396  -0.00266   0.00130   1.80780
    R5        1.80447  -0.02956  -0.05271   0.05459   0.00188   1.80634
    R6        2.12065   0.10603   0.00475   0.38965   0.39440   2.51505
    A1        1.88173  -0.00688  -0.00560  -0.01647  -0.02190   1.85983
    A2        2.58648  -0.00654  -0.00584  -0.01835  -0.02447   2.56201
    A3        1.68585   0.01499   0.01193   0.04649   0.05851   1.74436
    A4        2.22387  -0.03109  -0.04783  -0.03562  -0.08345   2.14042
    A5        0.91410   0.02296  -0.01986  -0.13221  -0.15208   0.76203
    A6        2.36768  -0.00594  -0.00070  -0.02756  -0.02826   2.33942
    D1       -2.78110   0.00019   0.00130  -0.00818  -0.00752  -2.78862
    D2        0.84841   0.00285   0.00141   0.01717   0.01823   0.86665
    D3       -1.60234  -0.00362  -0.00231  -0.02086  -0.02282  -1.62516
    D4       -1.92186  -0.00086   0.02485  -0.06667  -0.04182  -1.96368
    D5        3.13876   0.00001  -0.00036   0.00166   0.00129   3.14005
         Item               Value     Threshold  Converged?
 Maximum Force            0.106034     0.000450     NO 
 RMS     Force            0.029117     0.000300     NO 
 Maximum Displacement     0.190678     0.001800     NO 
 RMS     Displacement     0.093143     0.001200     NO 
 Predicted change in Energy=-3.700695D-02
 GradGradGradGradGradGradGradGradGradGradGradGradGradGradGradGradGradGrad

                          Input orientation:                          
 ---------------------------------------------------------------------
 Center     Atomic      Atomic             Coordinates (Angstroms)
 Number     Number       Type             X           Y           Z
 ---------------------------------------------------------------------
      1          8           0       -4.801934   -1.793779   -0.208005
      2          1           0       -4.334831   -1.151993   -0.728620
      3          1           0       -5.578377   -1.358436    0.126170
      4          8           0       -4.610871   -4.041666    1.711589
      5          1           0       -5.494803   -4.282973    1.986550
      6          1           0       -4.021292   -3.529540    2.262790
      7          1           0       -4.669968   -3.344951    1.115419
 ---------------------------------------------------------------------
                    Distance matrix (angstroms):
                    1          2          3          4          5
     1  O    0.000000
     2  H    0.949270   0.000000
     3  H    0.950821   1.523054   0.000000
     4  O    2.962152   3.792232   3.263334   0.000000
     5  H    3.390019   4.303570   3.467120   0.956645   0.000000
     6  H    3.118830   3.834001   3.421017   0.955876   1.677857
     7  H    2.043283   2.884764   2.397930   0.918870   1.522861
                    6          7
     6  H    0.000000
     7  H    1.330907   0.000000
 Stoichiometry    H5O2(1+)
 Framework group  C1[X(H5O2)]
 Deg. of freedom    15
 Full point group                 C1      NOp   1
 Largest Abelian subgroup         C1      NOp   1
 Largest concise Abelian subgroup C1      NOp   1
                         Standard orientation:                         
 ---------------------------------------------------------------------
 Center     Atomic      Atomic             Coordinates (Angstroms)
 Number     Number       Type             X           Y           Z
 ---------------------------------------------------------------------
      1          8           0        1.477616   -0.004322   -0.056144
      2          1           0        2.279016   -0.512997   -0.045178
      3          1           0        1.627447    0.749542    0.503588
      4          8           0       -1.484188   -0.045636   -0.075004
      5          1           0       -1.801546    0.853588    0.001487
      6          1           0       -1.486923   -0.657508    0.659368
      7          1           0       -0.565419   -0.032965   -0.070076
 ---------------------------------------------------------------------
 Rotational constants (GHZ):    177.9278335      5.9669701      5.8823666
 Standard basis: 6-31G(d,p) (6D, 7F)
 There are    55 symmetry adapted basis functions of A   symmetry.
 Integral buffers will be    131072 words long.
 Raffenetti 1 integral format.
 Two-electron integral symmetry is turned on.
    55 basis functions,    91 primitive gaussians,    55 cartesian basis functions
    10 alpha electrons       10 beta electrons
       nuclear repulsion energy        43.2786944437 Hartrees.
 NAtoms=    7 NActive=    7 NUniq=    7 SFac= 1.00D+00 NAtFMM=   60 NAOKFM=F Big=F
 One-electron integrals computed using PRISM.
 NBasis=    55 RedAO= T  NBF=    55
 NBsUse=    55 1.00D-06 NBFU=    55
 Initial guess read from the read-write file.
 B after Tr=     0.000000    0.000000    0.000000
         Rot=    1.000000    0.000000    0.000000    0.000000 Ang=   0.00 deg.
 Initial guess orbital symmetries:
       Occupied  (A) (A) (A) (A) (A) (A) (A) (A) (A) (A)
       Virtual   (A) (A) (A) (A) (A) (A) (A) (A) (A) (A) (A) (A)
                 (A) (A) (A) (A) (A) (A) (A) (A) (A) (A) (A) (A)
                 (A) (A) (A) (A) (A) (A) (A) (A) (A) (A) (A) (A)
                 (A) (A) (A) (A) (A) (A) (A) (A) (A)
 Harris functional with IExCor=  205 diagonalized for initial guess.
 ExpMin= 1.61D-01 ExpMax= 5.48D+03 ExpMxC= 8.25D+02 IAcc=1 IRadAn=         1 AccDes= 0.00D+00
 HarFok:  IExCor=  205 AccDes= 0.00D+00 IRadAn=         1 IDoV= 1
 ScaDFX=  1.000000  1.000000  1.000000  1.000000
 FoFCou: FMM=F IPFlag=           0 FMFlag=      100000 FMFlg1=           0
         NFxFlg=           0 DoJE=T BraDBF=F KetDBF=T FulRan=T
         Omega=  0.000000  0.000000  1.000000  0.000000  0.000000 ICntrl=     500 IOpCl=  0
         NMat0=    1 NMatS0=    1 NMatT0=    0 NMatD0=    1 NMtDS0=    0 NMtDT0=    0
         I1Cent=           4 NGrid=           0.
 Petite list used in FoFCou.
 Requested convergence on RMS density matrix=1.00D-08 within 128 cycles.
 Requested convergence on MAX density matrix=1.00D-06.
 Requested convergence on             energy=1.00D-06.
 No special actions if energy rises.
 Keep R1 ints in memory in canonical form, NReq=2034557.
 SCF Done:  E(RHF) =  -152.348235726     A.U. after   10 cycles
             Convg  =    0.6989D-08             -V/T =  2.0021
 Calling FoFJK, ICntrl=      2127 FMM=F ISym2X=0 I1Cent= 0 IOpClX= 0 NMat=1 NMatS=1 NMatT=0.
 ***** Axes restored to original set *****
 -------------------------------------------------------------------
 Center     Atomic                   Forces (Hartrees/Bohr)
 Number     Number              X              Y              Z
 -------------------------------------------------------------------
      1        8          -0.007916843   -0.004489606    0.017943507
      2        1           0.000535630   -0.004631594    0.001243173
      3        1           0.004274580    0.002707049   -0.008888241
      4        8           0.016661497   -0.006369719    0.011634162
      5        1           0.001286584   -0.002601646    0.017673153
      6        1           0.002247584   -0.021882898    0.041100082
      7        1          -0.017089030    0.037268415   -0.080705836
 -------------------------------------------------------------------
 Cartesian Forces:  Max     0.080705836 RMS     0.023578153

 GradGradGradGradGradGradGradGradGradGradGradGradGradGradGradGradGradGrad
 Berny optimization.
 Using GEDIIS/GDIIS optimizer.
 Internal  Forces:  Max     0.074820535 RMS     0.026528546
 Search for a local minimum.
 Step number   6 out of a maximum of   27
 All quantities printed in internal units (Hartrees-Bohrs-Radians)
 Mixed Optimization -- RFO/linear search
 Update second derivatives using D2CorX and points    4    5    6
 DE= -3.38D-02 DEPred=-3.70D-02 R= 9.13D-01
 SS=  1.41D+00  RLast= 4.46D-01 DXNew= 7.1352D-01 1.3386D+00
 Trust test= 9.13D-01 RLast= 4.46D-01 DXMaxT set to 7.14D-01
 The second derivative matrix:
                          R1        R2        R3        R4        R5
           R1           0.55589
           R2           0.00045   0.55413
           R3           0.00068   0.00052   0.03536
           R4          -0.00034  -0.00010  -0.00037   0.55574
           R5          -0.03296  -0.04505  -0.00007   0.01511   0.21625
           R6          -0.03231  -0.03991   0.00781   0.01290  -0.10051
           A1           0.00141   0.00144   0.00052  -0.00038  -0.00412
           A2          -0.00280  -0.00344  -0.00072   0.00137  -0.01444
           A3           0.00143   0.00196   0.00072  -0.00081   0.01643
           A4          -0.00896  -0.01252   0.00071   0.00534  -0.10244
           A5          -0.07051  -0.08641   0.00966   0.03415  -0.13918
           A6           0.00174   0.00212  -0.00031  -0.00069   0.00788
           D1           0.00006   0.00012  -0.00031  -0.00008   0.00035
           D2           0.00061   0.00071   0.00019  -0.00030   0.00119
           D3          -0.00026  -0.00033  -0.00011   0.00018  -0.00051
           D4          -0.01245  -0.01362  -0.00450   0.00395  -0.02466
           D5           0.00017   0.00019   0.00009  -0.00009   0.00043
                          R6        A1        A2        A3        A4
           R6           0.32362
           A1          -0.00962   0.16075
           A2           0.00479  -0.00074   0.15928
           A3           0.00045   0.00017   0.00178   0.15737
           A4          -0.03449  -0.00002  -0.00477   0.00591   0.13897
           A5           0.64481  -0.02465  -0.01314   0.03818  -0.12431
           A6           0.00059   0.00037  -0.00052   0.00042   0.00054
           D1          -0.00123  -0.00009  -0.00005   0.00010  -0.00074
           D2          -0.00243   0.00020  -0.00003  -0.00020   0.00051
           D3           0.00149  -0.00008  -0.00001   0.00012  -0.00036
           D4           0.03169  -0.00514   0.00074   0.00397  -0.01406
           D5          -0.00019   0.00005  -0.00002  -0.00003   0.00012
                          A5        A6        D1        D2        D3
           A5           2.05906
           A6          -0.00819   0.15994
           D1          -0.00334   0.00004   0.01564
           D2          -0.00327   0.00013  -0.00001   0.00233
           D3           0.00325  -0.00004   0.00000  -0.00001   0.00231
           D4          -0.00660  -0.00253   0.00065  -0.00081   0.00031
           D5          -0.00012   0.00002  -0.00001   0.00001   0.00000
                          D4        D5
           D4           0.03815
           D5          -0.00027   0.00230
 ITU=  1  1 -1  0  1  0
 Use linear search instead of GDIIS.
     Eigenvalues ---    0.00230   0.00230   0.00930   0.01565   0.03171
     Eigenvalues ---    0.04439   0.11520   0.14309   0.16008   0.16048
     Eigenvalues ---    0.29565   0.55474   0.55558   0.56010   2.30162
 RFO step:  Lambda=-3.64331475D-02 EMin= 2.29917257D-03
 Quartic linear search produced a step of  1.30227.
 Iteration  1 RMS(Cart)=  0.14949693 RMS(Int)=  0.16757598
 Iteration  2 RMS(Cart)=  0.12633438 RMS(Int)=  0.09683007
 Iteration  3 RMS(Cart)=  0.09143160 RMS(Int)=  0.03899082
 Iteration  4 RMS(Cart)=  0.05378066 RMS(Int)=  0.00541730
 Iteration  5 RMS(Cart)=  0.00411644 RMS(Int)=  0.00361016
 Iteration  6 RMS(Cart)=  0.00001373 RMS(Int)=  0.00361015
 Iteration  7 RMS(Cart)=  0.00000000 RMS(Int)=  0.00361015
 Variable       Old X    -DE/DX   Delta X   Delta X   Delta X     New X
                                 (Linear)    (Quad)   (Total)
    R1        1.79386  -0.00355  -0.01393  -0.01876  -0.03270   1.76117
    R2        1.79679  -0.00538  -0.01449  -0.02817  -0.04266   1.75413
    R3        3.86125  -0.01134  -0.09443  -0.19411  -0.28854   3.57270
    R4        1.80780   0.00455   0.00170   0.01921   0.02091   1.82871
    R5        1.80634  -0.02316   0.00244  -0.23320  -0.23075   1.57559
    R6        2.51505   0.07482   0.51362   0.05623   0.56985   3.08490
    A1        1.85983  -0.00348  -0.02852  -0.00080  -0.02896   1.83087
    A2        2.56201  -0.00712  -0.03187  -0.06281  -0.09941   2.46260
    A3        1.74436   0.01220   0.07619   0.09938   0.17505   1.91940
    A4        2.14042  -0.02585  -0.10868  -0.29208  -0.40076   1.73966
    A5        0.76203   0.06711  -0.19804   0.00373  -0.19431   0.56771
    A6        2.33942  -0.00298  -0.03680   0.00549  -0.03131   2.30811
[...]
     6   1    -0.30   0.11  -0.22    -0.33   0.11  -0.26     0.34  -0.15  -0.60
     7   1     0.05  -0.15   0.00    -0.60  -0.20  -0.01    -0.02   0.01   0.00
                    13                     14                     15
                     A                      A                      A
 Frequencies --  4087.7369              4130.8812              4193.6518
 Red. masses --     1.0440                 1.0904                 1.0876
 Frc consts  --    10.2780                10.9628                11.2700
 IR Inten    --   107.1847               437.9961               325.1396
 Raman Activ --    56.4829                18.6834                26.1019
 Depolar (P) --     0.0938                 0.7500                 0.7474
 Depolar (U) --     0.1715                 0.8571                 0.8554
  Atom  AN      X      Y      Z        X      Y      Z        X      Y      Z
     1   8     0.05   0.00   0.00     0.00   0.00   0.00     0.00   0.07   0.00
     2   1    -0.39   0.61   0.03     0.00   0.00   0.00     0.38  -0.57  -0.02
     3   1    -0.39  -0.56  -0.02     0.00   0.00   0.00    -0.43  -0.59  -0.02
     4   8    -0.01   0.00   0.00     0.00   0.00   0.07     0.00   0.00   0.00
     5   1     0.03  -0.02   0.06    -0.34   0.21  -0.58     0.00   0.00   0.00
     6   1     0.04  -0.01  -0.06     0.34  -0.16  -0.59     0.00   0.00   0.00
     7   1     0.02   0.00   0.00     0.00   0.00  -0.01     0.00   0.00   0.00

 -------------------
 - Thermochemistry -
 -------------------
 Temperature   298.150 Kelvin.  Pressure   1.00000 Atm.
 Atom     1 has atomic number  8 and mass  15.99491
 Atom     2 has atomic number  1 and mass   1.00783
 Atom     3 has atomic number  1 and mass   1.00783
 Atom     4 has atomic number  8 and mass  15.99491
 Atom     5 has atomic number  1 and mass   1.00783
 Atom     6 has atomic number  1 and mass   1.00783
 Atom     7 has atomic number  1 and mass   1.00783
 Molecular mass:    37.02895 amu.
 Principal axes and moments of inertia in atomic units:
                           1         2         3
     Eigenvalues --     9.29505 209.81744 210.06363
           X            0.99994  -0.01097  -0.00040
           Y            0.01097   0.99989  -0.00962
           Z            0.00051   0.00961   0.99995
 This molecule is an asymmetric top.
 Rotational symmetry number  1.
 Rotational temperatures (Kelvin)      9.31827     0.41281     0.41232
 Rotational constants (GHZ):         194.16149     8.60148     8.59140
 Zero-point vibrational energy     161454.0 (Joules/Mol)
                                   38.58844 (Kcal/Mol)
 Warning -- explicit consideration of   6 degrees of freedom as
           vibrations may cause significant error
 Vibrational temperatures:    196.18   309.51   520.88   676.39   712.01
          (Kelvin)            731.97  2026.04  2067.60  2517.01  2580.52
                             2848.37  5791.92  5881.33  5943.41  6033.72
 
 Zero-point correction=                           0.061495 (Hartree/Particle)
 Thermal correction to Energy=                    0.066590
 Thermal correction to Enthalpy=                  0.067534
 Thermal correction to Gibbs Free Energy=         0.036435
 Sum of electronic and zero-point Energies=           -152.326452
 Sum of electronic and thermal Energies=              -152.321356
 Sum of electronic and thermal Enthalpies=            -152.320412
 Sum of electronic and thermal Free Energies=         -152.351511
 
                     E (Thermal)             CV                S
                      KCal/Mol        Cal/Mol-Kelvin    Cal/Mol-Kelvin
 Total                   41.786             15.321             65.454
 Electronic               0.000              0.000              0.000
 Translational            0.889              2.981             36.757
 Rotational               0.889              2.981             20.643
 Vibrational             40.009              9.359              8.054
 Vibration     1          0.614              1.917              2.854
 Vibration     2          0.645              1.818              2.000
 Vibration     3          0.736              1.550              1.113
 Vibration     4          0.827              1.316              0.737
 Vibration     5          0.850              1.261              0.671
 Vibration     6          0.864              1.231              0.637
                       Q            Log10(Q)             Ln(Q)
 Total Bot       0.174211D-16        -16.758924        -38.588849
 Total V=0       0.336172D+12         11.526562         26.540889
 Vib (Bot)       0.271481D-27        -27.566260        -63.473660
 Vib (Bot)    1  0.149270D+01          0.173973          0.400587
 Vib (Bot)    2  0.921366D+00         -0.035568         -0.081897
 Vib (Bot)    3  0.505606D+00         -0.296188         -0.681998
 Vib (Bot)    4  0.358758D+00         -0.445198         -1.025106
 Vib (Bot)    5  0.333623D+00         -0.476744         -1.097743
 Vib (Bot)    6  0.320541D+00         -0.494117         -1.137746
 Vib (V=0)       0.523873D+01          0.719226          1.656079
 Vib (V=0)    1  0.207422D+01          0.316854          0.729583
 Vib (V=0)    2  0.154829D+01          0.189853          0.437152
 Vib (V=0)    3  0.121108D+01          0.083173          0.191514
 Vib (V=0)    4  0.111539D+01          0.047428          0.109206
 Vib (V=0)    5  0.110109D+01          0.041821          0.096297
 Vib (V=0)    6  0.109392D+01          0.038987          0.089772
 Electronic      0.100000D+01          0.000000          0.000000
 Translational   0.885661D+07          6.947267         15.996674
 Rotational      0.724550D+04          3.860069          8.888136
 ***** Axes restored to original set *****
 -------------------------------------------------------------------
 Center     Atomic                   Forces (Hartrees/Bohr)
 Number     Number              X              Y              Z
 -------------------------------------------------------------------
      1        8          -0.000008906    0.000013386   -0.000005941
      2        1           0.000003407   -0.000006070    0.000001487
      3        1          -0.000000013   -0.000001402    0.000006674
      4        8           0.000009524   -0.000019233    0.000004743
      5        1          -0.000002478    0.000001414    0.000004410
      6        1          -0.000008800    0.000006858   -0.000002811
      7        1           0.000007266    0.000005046   -0.000008563
 -------------------------------------------------------------------
 Cartesian Forces:  Max     0.000019233 RMS     0.000007514

 GradGradGradGradGradGradGradGradGradGradGradGradGradGradGradGradGradGrad
 Berny optimization.
 Internal  Forces:  Max     0.000038660 RMS     0.000010631
 Search for a local minimum.
 Step number   1 out of a maximum of    2
 All quantities printed in internal units (Hartrees-Bohrs-Radians)
 Second derivative matrix not updated -- analytic derivatives used.
 The second derivative matrix:
                          R1        R2        R3        R4        R5
           R1           0.61506
           R2          -0.00247   0.61692
           R3           0.00486   0.00442   0.08815
           R4           0.00065   0.00070  -0.00447   0.59755
           R5           0.00203   0.00207  -0.06510  -0.00198   0.68612
           R6          -0.00257  -0.00261   0.11058   0.00315  -0.12282
           A1           0.01089   0.01137   0.00564   0.00017   0.00702
           A2          -0.00358  -0.00720  -0.00277   0.00000  -0.00188
           A3          -0.00731  -0.00418  -0.00287  -0.00017  -0.00514
           A4          -0.00004  -0.00032  -0.01415   0.00899  -0.01763
           A5          -0.00494  -0.00483   0.19453   0.01135  -0.08341
           A6           0.00018  -0.00007   0.00019   0.00048   0.02893
           D1           0.00001   0.00001   0.00000  -0.00033  -0.00071
           D2          -0.00001  -0.00001   0.00000   0.00016   0.00026
           D3           0.00001   0.00001   0.00001  -0.00021  -0.00052
           D4          -0.00070  -0.00005  -0.00749  -0.00627  -0.02236
           D5           0.00033  -0.00014   0.00037  -0.00057  -0.00017
                          R6        A1        A2        A3        A4
           R6           0.20728
           A1          -0.01256   0.07938
           A2           0.00473  -0.03985   0.04303
           A3           0.00784  -0.03953  -0.00317   0.04270
           A4           0.02260   0.00162  -0.00046  -0.00116   0.20435
           A5           0.29127  -0.02213   0.01084   0.01129  -0.06687
           A6          -0.01642  -0.00018   0.00135  -0.00117  -0.00635
           D1           0.00058  -0.00002   0.00002   0.00000  -0.00058
           D2          -0.00023  -0.00006   0.00004   0.00002   0.00064
           D3           0.00040   0.00006  -0.00004  -0.00002  -0.00001
           D4           0.00994   0.00107   0.00110  -0.00217   0.03878
           D5          -0.00031  -0.00034   0.00254  -0.00220   0.00315
                          A5        A6        D1        D2        D3
           A5           0.94836
           A6           0.04531   0.05244
           D1          -0.00003  -0.00343   0.00070
           D2           0.00009   0.00143  -0.00061   0.00126
           D3           0.00002  -0.00242   0.00018   0.00058   0.00078
           D4          -0.05828  -0.00630   0.00000  -0.00080  -0.00080
           D5          -0.00261  -0.00034   0.00002   0.00146   0.00148
                          D4        D5
           D4           0.02609
           D5          -0.00165   0.01515
 ITU=  0
     Eigenvalues ---    0.00047   0.00144   0.00751   0.01444   0.02096
     Eigenvalues ---    0.04117   0.04689   0.10736   0.11966   0.21975
     Eigenvalues ---    0.59765   0.61413   0.61869   0.67295   1.14225
 Angle between quadratic step and forces=  82.13 degrees.
 Linear search not attempted -- first point.
 Iteration  1 RMS(Cart)=  0.00080253 RMS(Int)=  0.00000089
 Iteration  2 RMS(Cart)=  0.00000081 RMS(Int)=  0.00000030
 Variable       Old X    -DE/DX   Delta X   Delta X   Delta X     New X
                                 (Linear)    (Quad)   (Total)
    R1        1.79279   0.00000   0.00000   0.00000   0.00000   1.79279
    R2        1.79186   0.00000   0.00000   0.00000   0.00000   1.79185
    R3        2.48358   0.00000   0.00000   0.00014   0.00014   2.48372
    R4        1.80002   0.00000   0.00000   0.00002   0.00002   1.80004
    R5        1.80004  -0.00001   0.00000   0.00000   0.00000   1.80004
    R6        3.30118   0.00001   0.00000  -0.00031  -0.00031   3.30087
    A1        1.92495   0.00001   0.00000   0.00005   0.00005   1.92500
    A2        2.15489   0.00000   0.00000  -0.00006  -0.00006   2.15483
    A3        2.20334   0.00000   0.00000   0.00001   0.00001   2.20335
    A4        1.96667  -0.00001   0.00000  -0.00014  -0.00014   1.96654
    A5        0.57568   0.00004   0.00000   0.00017   0.00017   0.57585
    A6        2.65473  -0.00001   0.00000   0.00000   0.00000   2.65473
    D1        3.13939   0.00000   0.00000   0.00219   0.00219   3.14158
    D2        1.81403   0.00000   0.00000   0.00182   0.00182   1.81585
    D3       -1.33004   0.00000   0.00000   0.00428   0.00428  -1.32576
    D4       -2.51444   0.00001   0.00000   0.00111   0.00111  -2.51332
    D5       -3.04241   0.00000   0.00000  -0.00063  -0.00063  -3.04304
         Item               Value     Threshold  Converged?
 Maximum Force            0.000039     0.000450     YES
 RMS     Force            0.000011     0.000300     YES
 Maximum Displacement     0.001499     0.001800     YES
 RMS     Displacement     0.000802     0.001200     YES
 Predicted change in Energy=-1.594984D-08
 Optimization completed.
    -- Stationary point found.
                           ----------------------------
                           !   Optimized Parameters   !
                           ! (Angstroms and Degrees)  !
 --------------------------                            --------------------------
 ! Name  Definition              Value          Derivative Info.                !
 --------------------------------------------------------------------------------
 ! R1    R(1,2)                  0.9487         -DE/DX =    0.0                 !
 ! R2    R(1,3)                  0.9482         -DE/DX =    0.0                 !
 ! R3    R(1,7)                  1.3143         -DE/DX =    0.0                 !
 ! R4    R(4,5)                  0.9525         -DE/DX =    0.0                 !
 ! R5    R(4,6)                  0.9525         -DE/DX =    0.0                 !
 ! R6    R(6,7)                  1.7469         -DE/DX =    0.0                 !
 ! A1    A(2,1,3)              110.2915         -DE/DX =    0.0                 !
 ! A2    A(2,1,7)              123.466          -DE/DX =    0.0                 !
 ! A3    A(3,1,7)              126.2424         -DE/DX =    0.0                 !
 ! A4    A(5,4,6)              112.6821         -DE/DX =    0.0                 !
 ! A5    A(4,6,7)               32.9842         -DE/DX =    0.0                 !
 ! A6    A(1,7,6)              152.1046         -DE/DX =    0.0                 !
 ! D1    D(2,1,3,7)            179.8739         -DE/DX =    0.0                 !
 ! D2    D(2,1,7,6)            103.9361         -DE/DX =    0.0                 !
 ! D3    D(3,1,7,6)            -76.2056         -DE/DX =    0.0                 !
 ! D4    D(5,4,6,7)           -144.0667         -DE/DX =    0.0                 !
 ! D5    D(4,6,7,1)           -174.3172         -DE/DX =    0.0                 !
 --------------------------------------------------------------------------------
 GradGradGradGradGradGradGradGradGradGradGradGradGradGradGradGradGradGrad

 1\1\GINC-STUDENT-LENOVO-S510\Freq\RHF\6-31G(d,p)\H5O2(1+)\STUDENT\01-M
 ar-2021\0\\#N Geom=AllCheck Guess=TCheck SCRF=Check GenChk RHF/6-31G(d
 ,p) Freq\\Title Card Required\\1,1\O,-4.9051399141,-1.9104974148,0.094
 4881386\H,-4.3772648117,-1.8007133702,-0.6861088432\H,-5.5521077047,-1
 .2198313833,0.1537678049\O,-4.5607781713,-3.7203273247,1.6233000221\H,
 -5.2034386726,-4.4226417469,1.6558357282\H,-4.1754377185,-3.5353213334
 ,2.4745430879\H,-4.737909347,-2.8940052369,0.9500664215\\Version=EM64L
 -G09RevC.01\State=1-A\HF=-152.3879465\RMSD=8.402e-10\RMSF=7.514e-06\Ze
 roPoint=0.0614946\Thermal=0.0665903\Dipole=-0.2598488,-0.110754,0.4435
 504\DipoleDeriv=-0.674294,0.0218325,-0.0755737,0.0175758,-0.9678826,0.
 2507842,-0.0709511,0.2453289,-0.8926828,0.4389931,0.0617779,-0.0453161
 ,0.0419171,0.3593191,0.0527715,-0.023745,0.0279201,0.4556805,0.459725,
 -0.0379162,0.0382067,-0.0162679,0.4309808,0.0490891,0.014692,0.0762136
 ,0.3564102,-0.5810642,0.0896311,-0.0762113,0.0745158,-0.9671329,0.3430
 15,-0.0598175,0.3240421,-0.8405734,0.4738914,0.0598201,-0.0390842,0.05
 56034,0.5324654,0.0234557,-0.0262369,0.0489083,0.3709282,0.4873631,-0.
 0344155,0.0745565,-0.0228344,0.3734037,0.0498442,0.053732,0.0336202,0.
 5165902,0.3953857,-0.1607298,0.1234222,-0.1505099,1.2388466,-0.7689597
 ,0.1123265,-0.7560332,1.033647\Polar=8.389089,-0.3613333,10.9325022,0.
 0848897,-2.5813688,10.8267266\PolarDeriv=0.651377,-1.6197228,1.4627839
 ,1.0684616,0.2500789,-1.3446008,-1.5288311,1.3002125,-2.1198869,0.2411
 778,0.1976802,-0.5787678,0.9524445,0.4087273,0.0442626,-1.3506694,-0.5
 484448,2.6524981,1.7637283,0.3604815,0.3852873,-1.7504445,-0.551734,1.
 6098369,0.3336053,0.5206614,0.4229368,-0.3169037,-0.8982424,0.2922762,
 -1.0250904,-0.0945128,-0.5073532,1.9132995,0.7914408,-4.3184184,-2.665
 5801,2.1056472,-1.7305053,-0.0298813,0.2925983,-0.3484793,1.3259839,-2
 .1244979,3.5322577,-0.1415575,-0.1378024,0.3852064,-0.0769763,-0.05168
 33,0.2897503,-0.5903993,0.692928,0.0259503,1.5654672,0.90265,2.2089902
 ,-0.6017568,-0.7375317,-0.2666044,0.7361632,1.6114941,-0.7568121,-0.79
 75765,1.0766916,-1.8564283,-0.8527772,-0.4624479,0.7982148,-0.5449695,
 -1.4983771,-2.3135522,-2.2263509,-1.8206402,-1.6475168,0.0909898,0.303
 0607,-0.3957597,-0.9135155,-1.6878126,-3.2581185,0.0384644,0.2785709,-
 0.3644536,0.1484802,0.1976651,0.125509,-0.5554768,-0.7450146,0.3979144
 ,1.1112031,0.0732032,0.0863277,1.3634087,0.0113514,0.9631911,0.0599409
 ,0.354511,0.3631876,0.2407148,0.8892761,0.5908774,0.8050047,0.2736043,
 0.5251986,1.5336907,0.1864091,4.4633325,-0.1998448,-0.0016189,-0.76536
 7,-0.1407773,0.4321763,-0.2175838,-0.0133467,0.0254316,1.8164354,0.735
 6807,-1.406174,1.5312896,0.0489145,-0.2713527,-1.275582,-0.4054753,1.1
 210585,-0.9077247\HyperPolar=-4.9841673,2.5048235,-11.8404501,-3.16297
 12,-1.1580317,-0.4724565,4.1189739,11.8991968,-0.1998454,4.0931554\PG=
 C01 [X(H5O2)]\NImag=0\\0.51586377,-0.29891140,0.45912061,-0.31374659,-
 0.11808555,0.52701370,-0.20389632,0.00499065,0.24872960,0.21275682,-0.
 02113340,-0.06400743,0.09488287,0.01000933,0.04936078,0.27716596,0.062
 16975,-0.41575759,-0.27577636,-0.06476084,0.41712697,-0.28683706,0.276
 47216,0.05859035,-0.01315625,0.01922956,-0.00404015,0.29885989,0.30300
 830,-0.33784723,-0.01221055,-0.00908881,0.00883624,0.00212930,-0.29773
 649,0.33227569,0.02969802,0.02106886,-0.06003870,0.02676840,-0.0333477
 3,0.00305580,-0.04955034,0.01249589,0.04922606,0.01409380,0.00938675,-
 0.00983560,-0.00225585,0.00271469,-0.00000089,0.00023171,-0.00042316,0
 .00087810,0.43717466,0.01039953,-0.04968468,0.05636117,0.00635861,-0.0
 0676877,-0.00053414,-0.00414550,-0.00040793,0.00622361,0.33851566,0.59
 560952,-0.01091992,0.05761573,-0.03441796,-0.00395202,0.00403132,0.000
 67253,0.00490434,0.00157803,-0.00726182,0.25300444,-0.06169740,0.68003
 321,-0.00279347,0.00439067,-0.00491757,-0.00012983,0.00013409,0.000092
 24,0.00097401,0.00039092,-0.00065854,-0.28076518,-0.28572106,-0.021339
 23,0.27878321,0.00125682,0.00061570,-0.00074413,-0.00017164,0.00014809
 ,0.00083023,0.00015681,-0.00065927,0.00054563,-0.27531445,-0.32598030,
 0.02549939,0.28940401,0.33437111,-0.00276099,0.00323721,-0.00436137,-0
 .00004310,0.00077697,0.00011923,0.00016858,0.00046445,-0.00047078,0.00
 325720,0.05400004,-0.07617217,0.00735616,-0.02419609,0.05692688,-0.000
 32339,-0.00261903,0.00202839,0.00090919,0.00006387,-0.00004859,-0.0000
 5602,0.00024256,-0.00017358,-0.10743847,-0.06982029,-0.17817179,-0.007
 72559,-0.00114921,-0.02769145,0.11659622,0.00026281,-0.00812714,0.0027
 6976,0.00024985,-0.00032427,0.00032877,-0.00018062,-0.00030802,0.00139
 776,-0.06981112,-0.09138623,-0.06536028,-0.00732260,0.00012048,-0.0335
 0843,0.06750205,0.07213574,0.00014144,-0.00153827,0.00191120,0.0002165
 0,0.00023171,-0.00044528,-0.00028724,0.00066216,0.00020697,-0.21405491
 ,-0.08078712,-0.48407034,0.00640089,0.00083544,0.01121374,0.20922080,0
 .08482042,0.48132551,-0.03610734,0.00629019,0.01915141,0.00577223,-0.0
 1101815,0.00260779,-0.00001628,0.00360668,-0.00696207,-0.06104067,0.00
 441306,-0.04352583,0.01165686,-0.01418234,0.01971359,-0.00196193,0.009
 29963,-0.00163748,0.08169714,0.00511734,-0.00006983,-0.02297357,-0.012
 34800,0.01275536,-0.00016306,0.00620409,-0.00188949,-0.00838402,-0.005
 06837,-0.12138161,0.03833321,-0.00127604,-0.00861582,-0.00077414,0.005
 78005,0.02788945,-0.00422433,0.00159093,0.09131195,0.02042208,-0.02446
 774,-0.01434929,0.00405697,-0.00181431,-0.00477166,-0.00978554,-0.0051
 1927,0.01528247,-0.03324835,0.02643385,-0.07878346,0.01306605,-0.00277
 047,0.01274446,-0.00516379,0.00955200,-0.01014181,0.01065258,-0.001814
 07,0.08001929\\0.00000891,-0.00001339,0.00000594,-0.00000341,0.0000060
 7,-0.00000149,0.00000001,0.00000140,-0.00000667,-0.00000952,0.00001923
 ,-0.00000474,0.00000248,-0.00000141,-0.00000441,0.00000880,-0.00000686
 ,0.00000281,-0.00000727,-0.00000505,0.00000856\\\@


 THAT'S WHAT MAKES US A GREAT COUNTRY.
 THE LITTLE THINGS ARE SERIOUS AND THE BIG ONES ARE NOT.
           WILL ROGERS
 Job cpu time:  0 days  0 hours  0 minutes  2.1 seconds.
 File lengths (MBytes):  RWF=      5 Int=      0 D2E=      0 Chk=      1 Scr=      1
 Normal termination of Gaussian 09 at Mon Mar  1 12:38:17 2021.
