 Entering Gaussian System, Link 0=g09
 Input=dimer_cs_b.com
 Output=dimer_cs_b.log
 Initial command:
 /home/student/g09/l1.exe /home/student/Aniruddha_1811022/Gau-11205.inp -scrdir=/home/student/Aniruddha_1811022/
 Entering Link 1 = /home/student/g09/l1.exe PID=     11207.
  
 Copyright (c) 1988,1990,1992,1993,1995,1998,2003,2009,2011,
            Gaussian, Inc.  All Rights Reserved.
  
 This is part of the Gaussian(R) 09 program.  It is based on
 the Gaussian(R) 03 system (copyright 2003, Gaussian, Inc.),
 the Gaussian(R) 98 system (copyright 1998, Gaussian, Inc.),
 the Gaussian(R) 94 system (copyright 1995, Gaussian, Inc.),
 the Gaussian 92(TM) system (copyright 1992, Gaussian, Inc.),
 the Gaussian 90(TM) system (copyright 1990, Gaussian, Inc.),
 the Gaussian 88(TM) system (copyright 1988, Gaussian, Inc.),
 the Gaussian 86(TM) system (copyright 1986, Carnegie Mellon
 University), and the Gaussian 82(TM) system (copyright 1983,
 Carnegie Mellon University). Gaussian is a federally registered
 trademark of Gaussian, Inc.
  
 This software contains proprietary and confidential information,
 including trade secrets, belonging to Gaussian, Inc.
  
 This software is provided under written license and may be
 used, copied, transmitted, or stored only in accord with that
 written license.
  
 The following legend is applicable only to US Government
 contracts under FAR:
  
                    RESTRICTED RIGHTS LEGEND
  
 Use, reproduction and disclosure by the US Government is
 subject to restrictions as set forth in subparagraphs (a)
 and (c) of the Commercial Computer Software - Restricted
 Rights clause in FAR 52.227-19.
  
 Gaussian, Inc.
 340 Quinnipiac St., Bldg. 40, Wallingford CT 06492
  
  
 ---------------------------------------------------------------
 Warning -- This program may not be used in any manner that
 competes with the business of Gaussian, Inc. or will provide
 assistance to any competitor of Gaussian, Inc.  The licensee
 of this program is prohibited from giving any competitor of
 Gaussian, Inc. access to this program.  By using this program,
 the user acknowledges that Gaussian, Inc. is engaged in the
 business of creating and licensing software in the field of
 computational chemistry and represents and warrants to the
 licensee that it is not a competitor of Gaussian, Inc. and that
 it will not use this program in any manner prohibited above.
 ---------------------------------------------------------------
  

 Cite this work as:
 Gaussian 09, Revision C.01,
 M. J. Frisch, G. W. Trucks, H. B. Schlegel, G. E. Scuseria, 
 M. A. Robb, J. R. Cheeseman, G. Scalmani, V. Barone, B. Mennucci, 
 G. A. Petersson, H. Nakatsuji, M. Caricato, X. Li, H. P. Hratchian, 
 A. F. Izmaylov, J. Bloino, G. Zheng, J. L. Sonnenberg, M. Hada, 
 M. Ehara, K. Toyota, R. Fukuda, J. Hasegawa, M. Ishida, T. Nakajima, 
 Y. Honda, O. Kitao, H. Nakai, T. Vreven, J. A. Montgomery, Jr., 
 J. E. Peralta, F. Ogliaro, M. Bearpark, J. J. Heyd, E. Brothers, 
 K. N. Kudin, V. N. Staroverov, T. Keith, R. Kobayashi, J. Normand, 
 K. Raghavachari, A. Rendell, J. C. Burant, S. S. Iyengar, J. Tomasi, 
 M. Cossi, N. Rega, J. M. Millam, M. Klene, J. E. Knox, J. B. Cross, 
 V. Bakken, C. Adamo, J. Jaramillo, R. Gomperts, R. E. Stratmann, 
 O. Yazyev, A. J. Austin, R. Cammi, C. Pomelli, J. W. Ochterski, 
 R. L. Martin, K. Morokuma, V. G. Zakrzewski, G. A. Voth, 
 P. Salvador, J. J. Dannenberg, S. Dapprich, A. D. Daniels, 
 O. Farkas, J. B. Foresman, J. V. Ortiz, J. Cioslowski, 
 and D. J. Fox, Gaussian, Inc., Wallingford CT, 2010.
 
 ******************************************
 Gaussian 09:  EM64L-G09RevC.01 23-Sep-2011
                 2-Mar-2021 
 ******************************************
 %chk=dimer_cs.chk
 -------------------------------------------------
 # b3lyp/6-31g** geom=connectivity opt freq genchk
 -------------------------------------------------
 1/14=-1,18=20,19=15,26=3,38=1,57=2/1,3;
 2/9=110,12=2,17=6,18=5,40=1/2;
 3/5=1,6=6,7=101,11=2,16=1,25=1,30=1,71=1,74=-5/1,2,3;
 4//1;
 5/5=2,38=5/2;
 6/7=2,8=2,9=2,10=2,28=1/1;
 7//1,2,3,16;
 1/14=-1,18=20,19=15/3(2);
 2/9=110/2;
 99//99;
 2/9=110/2;
 3/5=1,6=6,7=101,11=2,16=1,25=1,30=1,71=1,74=-5/1,2,3;
 4/5=5,16=3/1;
 5/5=2,38=5/2;
 7//1,2,3,16;
 1/14=-1,18=20,19=15/3(-5);
 2/9=110/2;
 6/7=2,8=2,9=2,10=2,19=2,28=1/1;
 99/9=1/99;
 -------------------
 Title Card Required
 -------------------
 Charge =  1 Multiplicity = 1
 Symbolic Z-Matrix:
 O                    -1.19495   0.00862   0. 
 H                    -1.72208  -0.78015   0. 
 H                    -1.75168   0.77619   0. 
 O                     1.19819  -0.05628   0. 
 H                     1.66428   0.19379   0.79235 
 H                     1.66428   0.19379  -0.79235 
 H                     0.11929   0.00201   0. 
 

 GradGradGradGradGradGradGradGradGradGradGradGradGradGradGradGradGradGrad
 Berny optimization.
 Initialization pass.
                           ----------------------------
                           !    Initial Parameters    !
                           ! (Angstroms and Degrees)  !
 --------------------------                            --------------------------
 ! Name  Definition              Value          Derivative Info.                !
 --------------------------------------------------------------------------------
 ! R1    R(1,2)                  0.9487         estimate D2E/DX2                !
 ! R2    R(1,3)                  0.9482         estimate D2E/DX2                !
 ! R3    R(1,7)                  1.3143         estimate D2E/DX2                !
 ! R4    R(4,5)                  0.9527         estimate D2E/DX2                !
 ! R5    R(4,6)                  0.9527         estimate D2E/DX2                !
 ! R6    R(4,7)                  1.0805         estimate D2E/DX2                !
 ! A1    A(2,1,3)              110.2916         estimate D2E/DX2                !
 ! A2    A(2,1,7)              123.466          estimate D2E/DX2                !
 ! A3    A(3,1,7)              126.2424         estimate D2E/DX2                !
 ! A4    A(5,4,6)              112.5494         estimate D2E/DX2                !
 ! A5    A(5,4,7)              118.3178         estimate D2E/DX2                !
 ! A6    A(6,4,7)              118.3178         estimate D2E/DX2                !
 ! A7    L(1,7,4,5,-1)         180.8037         estimate D2E/DX2                !
 ! A8    L(1,7,4,5,-2)         174.3283         estimate D2E/DX2                !
 ! D1    D(2,1,4,5)           -108.3377         estimate D2E/DX2                !
 ! D2    D(2,1,4,6)            108.3377         estimate D2E/DX2                !
 ! D3    D(3,1,4,5)             71.6623         estimate D2E/DX2                !
 ! D4    D(3,1,4,6)            -71.6623         estimate D2E/DX2                !
 --------------------------------------------------------------------------------
 Trust Radius=3.00D-01 FncErr=1.00D-07 GrdErr=1.00D-06
 Number of steps in this run=     28 maximum allowed number of steps=    100.
 GradGradGradGradGradGradGradGradGradGradGradGradGradGradGradGradGradGrad

                          Input orientation:                          
 ---------------------------------------------------------------------
 Center     Atomic      Atomic             Coordinates (Angstroms)
 Number     Number       Type             X           Y           Z
 ---------------------------------------------------------------------
      1          8           0       -1.194953    0.008623    0.000000
      2          1           0       -1.722082   -0.780154    0.000000
      3          1           0       -1.751682    0.776186    0.000000
      4          8           0        1.198188   -0.056285    0.000000
      5          1           0        1.664276    0.193795    0.792354
      6          1           0        1.664276    0.193795   -0.792354
      7          1           0        0.119286    0.002010    0.000000
 ---------------------------------------------------------------------
                    Distance matrix (angstroms):
                    1          2          3          4          5
     1  O    0.000000
     2  H    0.948701   0.000000
     3  H    0.948209   1.556622   0.000000
     4  O    2.394021   3.008648   3.065084   0.000000
     5  H    2.972760   3.611623   3.554683   0.952682   0.000000
     6  H    2.972760   3.611623   3.554683   0.952682   1.584709
     7  H    1.314256   2.000604   2.024814   1.080476   1.746883
                    6          7
     6  H    0.000000
     7  H    1.746883   0.000000
 Stoichiometry    H5O2(1+)
 Framework group  CS[SG(H3O2),X(H2)]
 Deg. of freedom    10
 Full point group                 CS      NOp   2
 Largest Abelian subgroup         CS      NOp   2
 Largest concise Abelian subgroup CS      NOp   2
                         Standard orientation:                         
 ---------------------------------------------------------------------
 Center     Atomic      Atomic             Coordinates (Angstroms)
 Number     Number       Type             X           Y           Z
 ---------------------------------------------------------------------
      1          8           0       -0.023985    1.194740    0.000000
      2          1           0       -0.826763    1.700289    0.000000
      3          1           0        0.728203    1.772075    0.000000
      4          8           0       -0.023985   -1.199281    0.000000
      5          1           0        0.238640   -1.658418    0.792354
      6          1           0        0.238640   -1.658418   -0.792354
      7          1           0        0.005037   -0.119195    0.000000
 ---------------------------------------------------------------------
 Rotational constants (GHZ):    194.1343695      8.6017464      8.5911757
 Standard basis: 6-31G(d,p) (6D, 7F)
 There are    39 symmetry adapted basis functions of A'  symmetry.
 There are    16 symmetry adapted basis functions of A"  symmetry.
 Integral buffers will be    131072 words long.
 Raffenetti 2 integral format.
 Two-electron integral symmetry is turned on.
    55 basis functions,    91 primitive gaussians,    55 cartesian basis functions
    10 alpha electrons       10 beta electrons
       nuclear repulsion energy        47.1329947707 Hartrees.
 NAtoms=    7 NActive=    7 NUniq=    6 SFac= 1.36D+00 NAtFMM=   60 NAOKFM=F Big=F
 One-electron integrals computed using PRISM.
 NBasis=    55 RedAO= T  NBF=    39    16
 NBsUse=    55 1.00D-06 NBFU=    39    16
 Harris functional with IExCor=  402 diagonalized for initial guess.
 ExpMin= 1.61D-01 ExpMax= 5.48D+03 ExpMxC= 8.25D+02 IAcc=1 IRadAn=         1 AccDes= 0.00D+00
 HarFok:  IExCor=  402 AccDes= 0.00D+00 IRadAn=         1 IDoV= 1
 ScaDFX=  1.000000  1.000000  1.000000  1.000000
 FoFCou: FMM=F IPFlag=           0 FMFlag=      100000 FMFlg1=           0
         NFxFlg=           0 DoJE=T BraDBF=F KetDBF=T FulRan=T
         Omega=  0.000000  0.000000  1.000000  0.000000  0.000000 ICntrl=     500 IOpCl=  0
         NMat0=    1 NMatS0=    1 NMatT0=    0 NMatD0=    1 NMtDS0=    0 NMtDT0=    0
         I1Cent=           4 NGrid=           0.
 Petite list used in FoFCou.
 Initial guess orbital symmetries:
       Occupied  (A') (A') (A') (A') (A') (A") (A') (A') (A') (A")
       Virtual   (A') (A') (A") (A') (A') (A') (A") (A') (A') (A')
                 (A') (A") (A') (A") (A') (A') (A') (A") (A') (A')
                 (A") (A") (A') (A') (A") (A') (A') (A") (A') (A')
                 (A") (A") (A") (A') (A') (A") (A') (A') (A') (A')
                 (A") (A') (A') (A') (A')
 The electronic state of the initial guess is 1-A'.
 Requested convergence on RMS density matrix=1.00D-08 within 128 cycles.
 Requested convergence on MAX density matrix=1.00D-06.
 Requested convergence on             energy=1.00D-06.
 No special actions if energy rises.
 Keep R1 ints in memory in canonical form, NReq=2144763.
 Integral accuracy reduced to 1.0D-05 until final iterations.
 Initial convergence to 1.0D-05 achieved.  Increase integral accuracy.
 SCF Done:  E(RB3LYP) =  -153.188762633     A.U. after   10 cycles
             Convg  =    0.5477D-08             -V/T =  2.0078

 **********************************************************************

            Population analysis using the SCF density.

 **********************************************************************

 Orbital symmetries:
       Occupied  (A') (A') (A') (A') (A") (A') (A') (A') (A') (A")
       Virtual   (A') (A') (A") (A') (A') (A') (A") (A') (A') (A')
                 (A') (A") (A') (A") (A') (A') (A') (A") (A') (A')
                 (A") (A") (A') (A") (A') (A') (A') (A") (A') (A')
                 (A") (A") (A") (A') (A') (A") (A') (A') (A') (A')
                 (A") (A') (A') (A') (A')
 The electronic state is 1-A'.
 Alpha  occ. eigenvalues --  -19.47648 -19.41213  -1.35131  -1.27610  -0.85731
 Alpha  occ. eigenvalues --   -0.85731  -0.79813  -0.66673  -0.63244  -0.57075
 Alpha virt. eigenvalues --   -0.18041  -0.13094  -0.08730  -0.05037   0.07388
 Alpha virt. eigenvalues --    0.40849   0.46046   0.47968   0.53264   0.59400
 Alpha virt. eigenvalues --    0.60744   0.62063   0.72884   0.74146   0.77263
 Alpha virt. eigenvalues --    0.82395   0.94250   1.17363   1.20884   1.22365
 Alpha virt. eigenvalues --    1.25694   1.32386   1.48054   1.84720   1.85806
 Alpha virt. eigenvalues --    1.97485   1.99453   2.01634   2.13260   2.25312
 Alpha virt. eigenvalues --    2.29816   2.38690   2.44409   2.44579   2.49325
 Alpha virt. eigenvalues --    2.71829   2.74018   2.87232   3.06888   3.10567
 Alpha virt. eigenvalues --    3.22722   3.28647   3.35502   3.97380   4.01934
          Condensed to atoms (all electrons):
              1          2          3          4          5          6
     1  O    7.903461   0.314724   0.314618  -0.068188   0.002870   0.002870
     2  H    0.314724   0.320292  -0.017539   0.002651  -0.000103  -0.000103
     3  H    0.314618  -0.017539   0.321924   0.002475  -0.000134  -0.000134
     4  O   -0.068188   0.002651   0.002475   7.728142   0.311996   0.311996
     5  H    0.002870  -0.000103  -0.000134   0.311996   0.297615  -0.014147
     6  H    0.002870  -0.000103  -0.000134   0.311996  -0.014147   0.297615
     7  H    0.122940  -0.007521  -0.006955   0.194059  -0.007791  -0.007791
              7
     1  O    0.122940
     2  H   -0.007521
     3  H   -0.006955
     4  O    0.194059
     5  H   -0.007791
     6  H   -0.007791
     7  H    0.229364
 Mulliken atomic charges:
              1
     1  O   -0.593295
     2  H    0.387598
     3  H    0.385745
     4  O   -0.483132
     5  H    0.409694
     6  H    0.409694
     7  H    0.483695
 Sum of Mulliken atomic charges =   1.00000
 Mulliken charges with hydrogens summed into heavy atoms:
              1
     1  O    0.180048
     4  O    0.819952
 Sum of Mulliken charges with hydrogens summed into heavy atoms =   1.00000
 Electronic spatial extent (au):  <R**2>=            143.6183
 Charge=              1.0000 electrons
 Dipole moment (field-independent basis, Debye):
    X=              0.9997    Y=             -0.7827    Z=              0.0000  Tot=              1.2697
 Quadrupole moment (field-independent basis, Debye-Ang):
   XX=             -9.7119   YY=              4.3962   ZZ=             -9.8291
   XY=             -2.1586   XZ=              0.0000   YZ=              0.0000
 Traceless Quadrupole moment (field-independent basis, Debye-Ang):
   XX=             -4.6637   YY=              9.4445   ZZ=             -4.7809
   XY=             -2.1586   XZ=              0.0000   YZ=              0.0000
 Octapole moment (field-independent basis, Debye-Ang**2):
  XXX=              0.0739  YYY=              0.5093  ZZZ=              0.0000  XYY=              3.4716
  XXY=              4.8725  XXZ=              0.0000  XZZ=              0.9051  YZZ=             -6.2199
  YYZ=              0.0000  XYZ=              0.0000
 Hexadecapole moment (field-independent basis, Debye-Ang**3):
 XXXX=             -9.0337 YYYY=            -60.3390 ZZZZ=             -8.5657 XXXY=             -0.0217
 XXXZ=              0.0000 YYYX=             -4.7670 YYYZ=              0.0000 ZZZX=              0.0000
 ZZZY=              0.0000 XXYY=            -13.4709 XXZZ=             -3.4704 YYZZ=            -14.3444
 XXYZ=              0.0000 YYXZ=              0.0000 ZZXY=             -1.0261
 N-N= 4.713299477068D+01 E-N=-4.499315751088D+02  KE= 1.520070185618D+02
 Symmetry A'   KE= 1.435261016318D+02
 Symmetry A"   KE= 8.480916930039D+00
 Calling FoFJK, ICntrl=      2127 FMM=F ISym2X=1 I1Cent= 0 IOpClX= 0 NMat=1 NMatS=1 NMatT=0.
 ***** Axes restored to original set *****
 -------------------------------------------------------------------
 Center     Atomic                   Forces (Hartrees/Bohr)
 Number     Number              X              Y              Z
 -------------------------------------------------------------------
      1        8           0.023008547    0.000156153    0.000000000
      2        1          -0.011046021   -0.016981569    0.000000000
      3        1          -0.011669614    0.016611277    0.000000000
      4        8          -0.004194435   -0.012416090    0.000000000
      5        1           0.009609866    0.005529524    0.016408615
      6        1           0.009609866    0.005529524   -0.016408615
      7        1          -0.015318208    0.001571180    0.000000000
 -------------------------------------------------------------------
 Cartesian Forces:  Max     0.023008547 RMS     0.011008924

 GradGradGradGradGradGradGradGradGradGradGradGradGradGradGradGradGradGrad
 Berny optimization.
 Internal  Forces:  Max     0.020297476 RMS     0.010095495
 Search for a local minimum.
 Step number   1 out of a maximum of   28
 All quantities printed in internal units (Hartrees-Bohrs-Radians)
 Mixed Optimization -- RFO/linear search
 Second derivative matrix not updated -- first step.
 The second derivative matrix:
                          R1        R2        R3        R4        R5
           R1           0.57976
           R2           0.00000   0.58089
           R3           0.00000   0.00000   0.17904
           R4           0.00000   0.00000   0.00000   0.57078
           R5           0.00000   0.00000   0.00000   0.00000   0.57078
           R6           0.00000   0.00000   0.00000   0.00000   0.00000
           A1           0.00000   0.00000   0.00000   0.00000   0.00000
           A2           0.00000   0.00000   0.00000   0.00000   0.00000
           A3           0.00000   0.00000   0.00000   0.00000   0.00000
           A4           0.00000   0.00000   0.00000   0.00000   0.00000
           A5           0.00000   0.00000   0.00000   0.00000   0.00000
           A6           0.00000   0.00000   0.00000   0.00000   0.00000
           A7           0.00000   0.00000   0.00000   0.00000   0.00000
           A8           0.00000   0.00000   0.00000   0.00000   0.00000
           D1           0.00000   0.00000   0.00000   0.00000   0.00000
           D2           0.00000   0.00000   0.00000   0.00000   0.00000
           D3           0.00000   0.00000   0.00000   0.00000   0.00000
           D4           0.00000   0.00000   0.00000   0.00000   0.00000
                          R6        A1        A2        A3        A4
           R6           0.35937
           A1           0.00000   0.16000
           A2           0.00000   0.00000   0.16000
           A3           0.00000   0.00000   0.00000   0.16000
           A4           0.00000   0.00000   0.00000   0.00000   0.16000
           A5           0.00000   0.00000   0.00000   0.00000   0.00000
           A6           0.00000   0.00000   0.00000   0.00000   0.00000
           A7           0.00000   0.00000   0.00000   0.00000   0.00000
           A8           0.00000   0.00000   0.00000   0.00000   0.00000
           D1           0.00000   0.00000   0.00000   0.00000   0.00000
           D2           0.00000   0.00000   0.00000   0.00000   0.00000
           D3           0.00000   0.00000   0.00000   0.00000   0.00000
           D4           0.00000   0.00000   0.00000   0.00000   0.00000
                          A5        A6        A7        A8        D1
           A5           0.16000
           A6           0.00000   0.16000
           A7           0.00000   0.00000   0.00230
           A8           0.00000   0.00000   0.00000   0.00230
           D1           0.00000   0.00000   0.00000   0.00000   0.00230
           D2           0.00000   0.00000   0.00000   0.00000   0.00000
           D3           0.00000   0.00000   0.00000   0.00000   0.00000
           D4           0.00000   0.00000   0.00000   0.00000   0.00000
                          D2        D3        D4
           D2           0.00230
           D3           0.00000   0.00230
           D4           0.00000   0.00000   0.00230
 ITU=  0
     Eigenvalues ---    0.00230   0.00230   0.00230   0.00230   0.01974
     Eigenvalues ---    0.16000   0.16000   0.16000   0.16000   0.17904
     Eigenvalues ---    0.35937   0.57077   0.57078   0.57976   0.58089
 RFO step:  Lambda=-3.42858617D-03 EMin= 2.30000000D-03
 Linear search not attempted -- first point.
 Iteration  1 RMS(Cart)=  0.02470057 RMS(Int)=  0.00014132
 Iteration  2 RMS(Cart)=  0.00017222 RMS(Int)=  0.00001256
 Iteration  3 RMS(Cart)=  0.00000004 RMS(Int)=  0.00001256
 ClnCor:  largest displacement from symmetrization is 2.21D-02 for atom     6.
 Variable       Old X    -DE/DX   Delta X   Delta X   Delta X     New X
                                 (Linear)    (Quad)   (Total)
    R1        1.79279   0.02026   0.00000   0.03474   0.03474   1.82752
    R2        1.79186   0.02030   0.00000   0.03474   0.03474   1.82659
    R3        2.48358  -0.00029   0.00000  -0.00161  -0.00170   2.48189
    R4        1.80031   0.01981   0.00000   0.03450   0.03661   1.83692
    R5        1.80031   0.01980   0.00000   0.03448   0.03661   1.83692
    R6        2.04180   0.01506   0.00000   0.04154   0.04149   2.08329
    A1        1.92495   0.00033   0.00000   0.00204   0.00203   1.92698
    A2        2.15489  -0.00012   0.00000  -0.00073  -0.00072   2.15416
    A3        2.20335  -0.00021   0.00000  -0.00131  -0.00131   2.20204
    A4        1.96436   0.00000   0.00000  -0.00518  -0.01468   1.94968
    A5        2.06504  -0.00020   0.00000  -0.00547   0.00047   2.06550
    A6        2.06504  -0.00017   0.00000  -0.00536   0.00047   2.06550
    A7        3.15562   0.00018   0.00000   0.02094   0.00598   3.16160
    A8        3.04260  -0.00034   0.00000  -0.03888  -0.04688   2.99572
    D1       -1.89085  -0.00026   0.00000  -0.00720  -0.00697  -1.89782
    D2        1.89085   0.00026   0.00000   0.00720   0.00697   1.89782
    D3        1.25074  -0.00026   0.00000  -0.00720  -0.00697   1.24377
    D4       -1.25074   0.00026   0.00000   0.00720   0.00697  -1.24377
         Item               Value     Threshold  Converged?
 Maximum Force            0.020297     0.000450     NO 
 RMS     Force            0.010095     0.000300     NO 
 Maximum Displacement     0.049690     0.001800     NO 
 RMS     Displacement     0.025719     0.001200     NO 
 Predicted change in Energy=-1.714001D-03
 GradGradGradGradGradGradGradGradGradGradGradGradGradGradGradGradGradGrad

                          Input orientation:                          
 ---------------------------------------------------------------------
 Center     Atomic      Atomic             Coordinates (Angstroms)
 Number     Number       Type             X           Y           Z
 ---------------------------------------------------------------------
      1          8           0       -1.203219    0.010069    0.000000
      2          1           0       -1.734566   -0.797964    0.000000
      3          1           0       -1.774963    0.789432    0.000000
      4          8           0        1.209880   -0.064646    0.000000
      5          1           0        1.690571    0.193487    0.804487
      6          1           0        1.690571    0.193487   -0.804487
      7          1           0        0.110137    0.012278    0.000000
 ---------------------------------------------------------------------
                    Distance matrix (angstroms):
                    1          2          3          4          5
     1  O    0.000000
     2  H    0.967082   0.000000
     3  H    0.966591   1.587910   0.000000
     4  O    2.414255   3.034389   3.104631   0.000000
     5  H    3.009129   3.655371   3.607253   0.972058   0.000000
     6  H    3.009129   3.655371   3.607253   0.972058   1.608975
     7  H    1.313358   2.014801   2.039012   1.102430   1.782641
                    6          7
     6  H    0.000000
     7  H    1.782641   0.000000
 Stoichiometry    H5O2(1+)
 Framework group  CS[SG(H3O2),X(H2)]
 Deg. of freedom    10
 Full point group                 CS      NOp   2
 Largest Abelian subgroup         CS      NOp   2
 Largest concise Abelian subgroup CS      NOp   2
                         Standard orientation:                         
 ---------------------------------------------------------------------
 Center     Atomic      Atomic             Coordinates (Angstroms)
 Number     Number       Type             X           Y           Z
 ---------------------------------------------------------------------
      1          8           0       -0.025040    1.204689    0.000000
      2          1           0       -0.849129    1.710776    0.000000
      3          1           0        0.736256    1.800279    0.000000
      4          8           0       -0.025040   -1.209566    0.000000
      5          1           0        0.247846   -1.682038    0.804487
      6          1           0        0.247846   -1.682038   -0.804487
      7          1           0        0.017813   -0.107969    0.000000
 ---------------------------------------------------------------------
 Rotational constants (GHZ):    187.1073157      8.4418578      8.4289110
 Standard basis: 6-31G(d,p) (6D, 7F)
 There are    39 symmetry adapted basis functions of A'  symmetry.
 There are    16 symmetry adapted basis functions of A"  symmetry.
 Integral buffers will be    131072 words long.
 Raffenetti 2 integral format.
 Two-electron integral symmetry is turned on.
    55 basis functions,    91 primitive gaussians,    55 cartesian basis functions
    10 alpha electrons       10 beta electrons
       nuclear repulsion energy        46.4923720703 Hartrees.
 NAtoms=    7 NActive=    7 NUniq=    6 SFac= 1.36D+00 NAtFMM=   60 NAOKFM=F Big=F
 One-electron integrals computed using PRISM.
 NBasis=    55 RedAO= T  NBF=    39    16
 NBsUse=    55 1.00D-06 NBFU=    39    16
 Initial guess read from the read-write file.
 B after Tr=     0.000000    0.000000    0.000000
         Rot=    1.000000    0.000000    0.000000    0.000000 Ang=   0.00 deg.
 Initial guess orbital symmetries:
       Occupied  (A') (A') (A') (A') (A") (A') (A') (A') (A') (A")
       Virtual   (A') (A') (A") (A') (A') (A') (A") (A') (A') (A')
                 (A') (A") (A') (A") (A') (A') (A') (A") (A') (A')
                 (A") (A") (A') (A") (A') (A') (A') (A") (A') (A')
                 (A") (A") (A") (A') (A') (A") (A') (A') (A') (A')
                 (A") (A') (A') (A') (A')
 Harris functional with IExCor=  402 diagonalized for initial guess.
 ExpMin= 1.61D-01 ExpMax= 5.48D+03 ExpMxC= 8.25D+02 IAcc=1 IRadAn=         1 AccDes= 0.00D+00
 HarFok:  IExCor=  402 AccDes= 0.00D+00 IRadAn=         1 IDoV= 1
 ScaDFX=  1.000000  1.000000  1.000000  1.000000
 FoFCou: FMM=F IPFlag=           0 FMFlag=      100000 FMFlg1=           0
         NFxFlg=           0 DoJE=T BraDBF=F KetDBF=T FulRan=T
         Omega=  0.000000  0.000000  1.000000  0.000000  0.000000 ICntrl=     500 IOpCl=  0
         NMat0=    1 NMatS0=    1 NMatT0=    0 NMatD0=    1 NMtDS0=    0 NMtDT0=    0
         I1Cent=           4 NGrid=           0.
 Petite list used in FoFCou.
 Requested convergence on RMS density matrix=1.00D-08 within 128 cycles.
 Requested convergence on MAX density matrix=1.00D-06.
 Requested convergence on             energy=1.00D-06.
 No special actions if energy rises.
 Keep R1 ints in memory in canonical form, NReq=2144770.
 Integral accuracy reduced to 1.0D-05 until final iterations.
 Initial convergence to 1.0D-05 achieved.  Increase integral accuracy.
 SCF Done:  E(RB3LYP) =  -153.190606034     A.U. after    9 cycles
             Convg  =    0.9760D-08             -V/T =  2.0089
 Calling FoFJK, ICntrl=      2127 FMM=F ISym2X=1 I1Cent= 0 IOpClX= 0 NMat=1 NMatS=1 NMatT=0.
 ***** Axes restored to original set *****
 -------------------------------------------------------------------
 Center     Atomic                   Forces (Hartrees/Bohr)
 Number     Number              X              Y              Z
 -------------------------------------------------------------------
      1        8           0.005511425    0.000297749    0.000000000
      2        1          -0.000369881   -0.000442694    0.000000000
      3        1          -0.000444123    0.000392128    0.000000000
      4        8           0.006260142   -0.001829153    0.000000000
      5        1          -0.000605462    0.000490356   -0.000069140
      6        1          -0.000605462    0.000490356    0.000069140
      7        1          -0.009746640    0.000601258    0.000000000
 -------------------------------------------------------------------
 Cartesian Forces:  Max     0.009746640 RMS     0.002847435

 GradGradGradGradGradGradGradGradGradGradGradGradGradGradGradGradGradGrad
 Berny optimization.
 Using GEDIIS/GDIIS optimizer.
 Internal  Forces:  Max     0.005084613 RMS     0.001679102
 Search for a local minimum.
 Step number   2 out of a maximum of   28
 All quantities printed in internal units (Hartrees-Bohrs-Radians)
 Mixed Optimization -- RFO/linear search
 Update second derivatives using D2CorX and points    1    2
 DE= -1.84D-03 DEPred=-1.71D-03 R= 1.08D+00
 SS=  1.41D+00  RLast= 9.73D-02 DXNew= 5.0454D-01 2.9192D-01
 Trust test= 1.08D+00 RLast= 9.73D-02 DXMaxT set to 3.00D-01
 The second derivative matrix:
                          R1        R2        R3        R4        R5
           R1           0.58569
           R2           0.00592   0.58681
           R3           0.02827   0.02832   0.18495
           R4           0.00378   0.00378   0.02881   0.57229
           R5           0.00373   0.00373   0.02879   0.00146   0.57219
           R6          -0.02335  -0.02340   0.01473  -0.02543  -0.02546
           A1           0.00090   0.00090   0.00064   0.00088   0.00088
           A2          -0.00008  -0.00008  -0.00017  -0.00006  -0.00006
           A3          -0.00082  -0.00082  -0.00046  -0.00081  -0.00081
           A4           0.00988   0.00990  -0.00093   0.01031   0.01032
           A5           0.00216   0.00216   0.00058   0.00219   0.00219
           A6           0.00229   0.00230   0.00061   0.00233   0.00232
           A7           0.00087   0.00088   0.00021   0.00089   0.00089
           A8          -0.00113  -0.00113  -0.00040  -0.00114  -0.00114
           D1           0.00155   0.00155   0.00033   0.00158   0.00158
           D2          -0.00155  -0.00155  -0.00033  -0.00158  -0.00158
           D3           0.00155   0.00155   0.00033   0.00158   0.00158
           D4          -0.00155  -0.00155  -0.00033  -0.00158  -0.00158
                          R6        A1        A2        A3        A4
           R6           0.32802
           A1           0.00003   0.16003
           A2           0.00011  -0.00001   0.16000
           A3          -0.00014  -0.00003   0.00001   0.16002
           A4           0.00808   0.00014  -0.00006  -0.00008   0.15856
           A5           0.00100   0.00005  -0.00001  -0.00004  -0.00002
           A6           0.00106   0.00006  -0.00001  -0.00004  -0.00003
           A7           0.00043   0.00002  -0.00001  -0.00002  -0.00002
           A8          -0.00043  -0.00003   0.00001   0.00002  -0.00002
           D1           0.00081   0.00003  -0.00001  -0.00003  -0.00005
           D2          -0.00081  -0.00003   0.00001   0.00003   0.00005
           D3           0.00081   0.00003  -0.00001  -0.00003  -0.00005
           D4          -0.00081  -0.00003   0.00001   0.00003   0.00005
                          A5        A6        A7        A8        D1
           A5           0.16005
           A6           0.00006   0.16006
           A7           0.00002   0.00002   0.00231
           A8          -0.00004  -0.00004  -0.00001   0.00232
           D1           0.00003   0.00003   0.00001  -0.00002   0.00232
           D2          -0.00003  -0.00003  -0.00001   0.00002  -0.00002
           D3           0.00003   0.00003   0.00001  -0.00002   0.00002
           D4          -0.00003  -0.00003  -0.00001   0.00002  -0.00002
                          D2        D3        D4
           D2           0.00232
           D3          -0.00002   0.00232
           D4           0.00002  -0.00002   0.00232
 ITU=  1  0
 Use linear search instead of GDIIS.
     Eigenvalues ---    0.00230   0.00230   0.00230   0.00232   0.02025
     Eigenvalues ---    0.15799   0.16000   0.16000   0.16003   0.17488
     Eigenvalues ---    0.32369   0.57077   0.57322   0.58033   0.60869
 RFO step:  Lambda=-2.90533649D-04 EMin= 2.29863837D-03
 Quartic linear search produced a step of  0.08258.
 Iteration  1 RMS(Cart)=  0.02217547 RMS(Int)=  0.00117183
 Iteration  2 RMS(Cart)=  0.00117452 RMS(Int)=  0.00018956
 Iteration  3 RMS(Cart)=  0.00000219 RMS(Int)=  0.00018955
 Iteration  4 RMS(Cart)=  0.00000000 RMS(Int)=  0.00018955
 ClnCor:  largest displacement from symmetrization is 4.24D-02 for atom     6.
 Variable       Old X    -DE/DX   Delta X   Delta X   Delta X     New X
                                 (Linear)    (Quad)   (Total)
    R1        1.82752   0.00057   0.00287   0.00103   0.00390   1.83142
    R2        1.82659   0.00058   0.00287   0.00103   0.00390   1.83049
    R3        2.48189  -0.00469  -0.00014  -0.02837  -0.02884   2.45305
    R4        1.83692  -0.00022   0.00302  -0.00031  -0.00127   1.83565
    R5        1.83692  -0.00023   0.00302  -0.00029  -0.00127   1.83565
    R6        2.08329   0.00508   0.00343   0.01538   0.01862   2.10191
    A1        1.92698  -0.00012   0.00017  -0.00078  -0.00065   1.92633
    A2        2.15416   0.00000  -0.00006   0.00000  -0.00002   2.15414
    A3        2.20204   0.00012  -0.00011   0.00078   0.00067   2.20271
    A4        1.94968   0.00055  -0.00121  -0.00820   0.00740   1.95708
    A5        2.06550  -0.00063   0.00004  -0.01260  -0.02439   2.04112
    A6        2.06550  -0.00062   0.00004  -0.01276  -0.02439   2.04112
    A7        3.16160   0.00002   0.00049  -0.03365  -0.00465   3.15694
    A8        2.99572  -0.00005  -0.00387   0.03940   0.05385   3.04958
    D1       -1.89782  -0.00050  -0.00058  -0.03459  -0.03525  -1.93308
    D2        1.89782   0.00050   0.00058   0.03459   0.03525   1.93308
    D3        1.24377  -0.00050  -0.00058  -0.03459  -0.03525   1.20852
    D4       -1.24377   0.00050   0.00058   0.03459   0.03525  -1.20852
         Item               Value     Threshold  Converged?
 Maximum Force            0.005085     0.000450     NO 
 RMS     Force            0.001679     0.000300     NO 
 Maximum Displacement     0.044551     0.001800     NO 
 RMS     Displacement     0.022858     0.001200     NO 
 Predicted change in Energy=-1.002714D-04
 GradGradGradGradGradGradGradGradGradGradGradGradGradGradGradGradGradGrad

                          Input orientation:                          
 ---------------------------------------------------------------------
 Center     Atomic      Atomic             Coordinates (Angstroms)
 Number     Number       Type             X           Y           Z
 ---------------------------------------------------------------------
      1          8           0       -1.195210    0.006973    0.000000
      2          1           0       -1.740364   -0.794307    0.000000
      3          1           0       -1.756330    0.796551    0.000000
      4          8           0        1.212979   -0.078940    0.000000
      5          1           0        1.671626    0.210350    0.805943
      6          1           0        1.671626    0.210350   -0.805943
      7          1           0        0.102758   -0.011298    0.000000
 ---------------------------------------------------------------------
                    Distance matrix (angstroms):
                    1          2          3          4          5
     1  O    0.000000
     2  H    0.969145   0.000000
     3  H    0.968653   1.590937   0.000000
     4  O    2.409721   3.038748   3.095687   0.000000
     5  H    2.984905   3.646993   3.569882   0.971385   0.000000
     6  H    2.984905   3.646993   3.569882   0.971385   1.611886
     7  H    1.298096   2.002549   2.027024   1.112280   1.777644
                    6          7
     6  H    0.000000
     7  H    1.777644   0.000000
 Stoichiometry    H5O2(1+)
 Framework group  CS[SG(H3O2),X(H2)]
 Deg. of freedom    10
 Full point group                 CS      NOp   2
 Largest Abelian subgroup         CS      NOp   2
 Largest concise Abelian subgroup CS      NOp   2
                         Standard orientation:                         
 ---------------------------------------------------------------------
 Center     Atomic      Atomic             Coordinates (Angstroms)
 Number     Number       Type             X           Y           Z
 ---------------------------------------------------------------------
      1          8           0       -0.027990    1.199330    0.000000
      2          1           0       -0.848196    1.715571    0.000000
      3          1           0        0.741080    1.788244    0.000000
      4          8           0       -0.027990   -1.210391    0.000000
      5          1           0        0.277467   -1.658432    0.805943
      6          1           0        0.277467   -1.658432   -0.805943
      7          1           0        0.000027   -0.098464    0.000000
 ---------------------------------------------------------------------
 Rotational constants (GHZ):    184.2337910      8.4921128      8.4743651
 Standard basis: 6-31G(d,p) (6D, 7F)
 There are    39 symmetry adapted basis functions of A'  symmetry.
 There are    16 symmetry adapted basis functions of A"  symmetry.
 Integral buffers will be    131072 words long.
 Raffenetti 2 integral format.
 Two-electron integral symmetry is turned on.
    55 basis functions,    91 primitive gaussians,    55 cartesian basis functions
    10 alpha electrons       10 beta electrons
       nuclear repulsion energy        46.5421335109 Hartrees.
 NAtoms=    7 NActive=    7 NUniq=    6 SFac= 1.36D+00 NAtFMM=   60 NAOKFM=F Big=F
 One-electron integrals computed using PRISM.
 NBasis=    55 RedAO= T  NBF=    39    16
 NBsUse=    55 1.00D-06 NBFU=    39    16
 Initial guess read from the read-write file.
 B after Tr=     0.000000    0.000000    0.000000
         Rot=    1.000000    0.000000    0.000000    0.000000 Ang=   0.00 deg.
 Initial guess orbital symmetries:
       Occupied  (A') (A') (A') (A') (A') (A") (A') (A') (A') (A")
       Virtual   (A') (A') (A") (A') (A') (A') (A") (A') (A') (A')
                 (A') (A") (A') (A") (A') (A') (A') (A") (A') (A')
                 (A") (A") (A') (A') (A") (A') (A') (A") (A') (A')
                 (A") (A") (A') (A") (A') (A") (A') (A') (A') (A')
                 (A") (A') (A') (A') (A')
 Harris functional with IExCor=  402 diagonalized for initial guess.
 ExpMin= 1.61D-01 ExpMax= 5.48D+03 ExpMxC= 8.25D+02 IAcc=1 IRadAn=         1 AccDes= 0.00D+00
 HarFok:  IExCor=  402 AccDes= 0.00D+00 IRadAn=         1 IDoV= 1
 ScaDFX=  1.000000  1.000000  1.000000  1.000000
 FoFCou: FMM=F IPFlag=           0 FMFlag=      100000 FMFlg1=           0
         NFxFlg=           0 DoJE=T BraDBF=F KetDBF=T FulRan=T
         Omega=  0.000000  0.000000  1.000000  0.000000  0.000000 ICntrl=     500 IOpCl=  0
         NMat0=    1 NMatS0=    1 NMatT0=    0 NMatD0=    1 NMtDS0=    0 NMtDT0=    0
         I1Cent=           4 NGrid=           0.
 Petite list used in FoFCou.
 Requested convergence on RMS density matrix=1.00D-08 within 128 cycles.
 Requested convergence on MAX density matrix=1.00D-06.
 Requested convergence on             energy=1.00D-06.
 No special actions if energy rises.
 Keep R1 ints in memory in canonical form, NReq=2144770.
 Integral accuracy reduced to 1.0D-05 until final iterations.
 Initial convergence to 1.0D-05 achieved.  Increase integral accuracy.
 SCF Done:  E(RB3LYP) =  -153.190839064     A.U. after   10 cycles
             Convg  =    0.9189D-09             -V/T =  2.0089
 Calling FoFJK, ICntrl=      2127 FMM=F ISym2X=1 I1Cent= 0 IOpClX= 0 NMat=1 NMatS=1 NMatT=0.
 ***** Axes restored to original set *****
 -------------------------------------------------------------------
 Center     Atomic                   Forces (Hartrees/Bohr)
 Number     Number              X              Y              Z
 -------------------------------------------------------------------
      1        8           0.001683316   -0.000333451    0.000000000
      2        1           0.000784949    0.000947378    0.000000000
      3        1           0.000842501   -0.001020735    0.000000000
      4        8           0.001739776   -0.002298968    0.000000000
      5        1           0.001207925    0.000787704   -0.000319889
      6        1           0.001207925    0.000787704    0.000319889
      7        1          -0.007466392    0.001130369    0.000000000
 -------------------------------------------------------------------
 Cartesian Forces:  Max     0.007466392 RMS     0.001901262

 GradGradGradGradGradGradGradGradGradGradGradGradGradGradGradGradGradGrad
 Berny optimization.
 Using GEDIIS/GDIIS optimizer.
 Internal  Forces:  Max     0.004174534 RMS     0.001423521
 Search for a local minimum.
 Step number   3 out of a maximum of   28
 All quantities printed in internal units (Hartrees-Bohrs-Radians)
 Mixed Optimization -- RFO/linear search
 Update second derivatives using D2CorX and points    1    2    3
 DE= -2.33D-04 DEPred=-1.00D-04 R= 2.32D+00
 SS=  1.41D+00  RLast= 1.02D-01 DXNew= 5.0454D-01 3.0521D-01
 Trust test= 2.32D+00 RLast= 1.02D-01 DXMaxT set to 3.05D-01
 The second derivative matrix:
                          R1        R2        R3        R4        R5
           R1           0.62145
           R2           0.04317   0.62558
           R3           0.03290   0.03250   0.14408
           R4           0.01561   0.01585   0.01609   0.57167
           R5           0.01576   0.01600   0.01601   0.00087   0.57163
           R6          -0.02720  -0.02661   0.06631  -0.00841  -0.00834
           A1          -0.00183  -0.00194   0.00072   0.00018   0.00017
           A2           0.00107   0.00111  -0.00057   0.00011   0.00011
           A3           0.00076   0.00083  -0.00015  -0.00029  -0.00028
           A4           0.03360   0.03463   0.00272   0.01798   0.01812
           A5           0.00007  -0.00050  -0.03087  -0.00921  -0.00929
           A6          -0.00032  -0.00091  -0.03065  -0.00915  -0.00924
           A7          -0.00389  -0.00406   0.00179   0.00014   0.00012
           A8           0.00563   0.00588  -0.00170   0.00024   0.00027
           D1          -0.00088  -0.00097   0.00064   0.00104   0.00102
           D2           0.00088   0.00097  -0.00064  -0.00104  -0.00102
           D3          -0.00088  -0.00097   0.00064   0.00104   0.00102
           D4           0.00088   0.00097  -0.00064  -0.00104  -0.00102
                          R6        A1        A2        A3        A4
           R6           0.26347
           A1          -0.00017   0.16025
           A2           0.00065  -0.00009   0.16003
           A3          -0.00048  -0.00015   0.00006   0.16009
           A4           0.00437  -0.00174   0.00073   0.00100   0.17468
           A5           0.04039   0.00054  -0.00049  -0.00005  -0.00098
           A6           0.04021   0.00059  -0.00051  -0.00008  -0.00134
           A7          -0.00172   0.00037  -0.00013  -0.00024  -0.00329
           A8           0.00145  -0.00054   0.00020   0.00034   0.00461
           D1           0.00033   0.00022  -0.00008  -0.00014  -0.00172
           D2          -0.00033  -0.00022   0.00008   0.00014   0.00172
           D3           0.00033   0.00022  -0.00008  -0.00014  -0.00172
           D4          -0.00033  -0.00022   0.00008   0.00014   0.00172
                          A5        A6        A7        A8        D1
           A5           0.13673
           A6          -0.02305   0.13718
           A7           0.00195   0.00201   0.00284
           A8          -0.00207  -0.00216  -0.00082   0.00352
           D1           0.00065   0.00068   0.00031  -0.00046   0.00248
           D2          -0.00065  -0.00068  -0.00031   0.00046  -0.00018
           D3           0.00065   0.00068   0.00031  -0.00046   0.00018
           D4          -0.00065  -0.00068  -0.00031   0.00046  -0.00018
                          D2        D3        D4
           D2           0.00248
           D3          -0.00018   0.00248
           D4           0.00018  -0.00018   0.00248
 ITU=  1  1  0
 Use linear search instead of GDIIS.
     Eigenvalues ---    0.00224   0.00230   0.00230   0.00325   0.01511
     Eigenvalues ---    0.09042   0.16000   0.16000   0.16021   0.16566
     Eigenvalues ---    0.29512   0.56398   0.57078   0.58033   0.68866
 RFO step:  Lambda=-5.23746879D-04 EMin= 2.24218388D-03
 Quartic linear search produced a step of  0.56588.
 Iteration  1 RMS(Cart)=  0.05908328 RMS(Int)=  0.00759053
 Iteration  2 RMS(Cart)=  0.01044602 RMS(Int)=  0.00045251
 Iteration  3 RMS(Cart)=  0.00018372 RMS(Int)=  0.00040757
 Iteration  4 RMS(Cart)=  0.00000006 RMS(Int)=  0.00040757
 ClnCor:  largest displacement from symmetrization is 1.91D-01 for atom     6.
          Exceeds limit of 1.00D-01 so symmetrization was rejected.
 Variable       Old X    -DE/DX   Delta X   Delta X   Delta X     New X
                                 (Linear)    (Quad)   (Total)
    R1        1.83142  -0.00122   0.00221   0.00433   0.00654   1.83796
    R2        1.83049  -0.00132   0.00221   0.00407   0.00627   1.83676
    R3        2.45305  -0.00331  -0.01632  -0.05423  -0.07055   2.38250
    R4        1.83565   0.00056  -0.00072   0.00331   0.00259   1.83824
    R5        1.83565   0.00054  -0.00072   0.00327   0.00255   1.83820
    R6        2.10191   0.00417   0.01053   0.03960   0.05013   2.15203
    A1        1.92633   0.00013  -0.00037   0.00100  -0.00036   1.92597
    A2        2.15414  -0.00009  -0.00001  -0.00095  -0.00196   2.15218
    A3        2.20271  -0.00004   0.00038  -0.00005  -0.00066   2.20205
    A4        1.95708  -0.00153   0.00419  -0.01467  -0.01038   1.94670
    A5        2.04112   0.00070  -0.01380  -0.02785  -0.04159   1.99953
    A6        2.04112   0.00074  -0.01380  -0.02751  -0.04123   1.99989
    A7        3.15694   0.00036  -0.00263   0.16834   0.16567   3.32261
    A8        3.04958  -0.00057   0.03048  -0.22205  -0.19159   2.85799
    D1       -1.93308  -0.00030  -0.01995  -0.01039  -0.03041  -1.96348
    D2        1.93308   0.00030   0.01995   0.01039   0.03034   1.96341
    D3        1.20852  -0.00030  -0.01995  -0.01039  -0.03034   1.17818
    D4       -1.20852   0.00030   0.01995   0.01039   0.03040  -1.17812
         Item               Value     Threshold  Converged?
 Maximum Force            0.004175     0.000450     NO 
 RMS     Force            0.001424     0.000300     NO 
 Maximum Displacement     0.149728     0.001800     NO 
 RMS     Displacement     0.066120     0.001200     NO 
 Predicted change in Energy=-3.168399D-04
 GradGradGradGradGradGradGradGradGradGradGradGradGradGradGradGradGradGrad

                          Input orientation:                          
 ---------------------------------------------------------------------
 Center     Atomic      Atomic             Coordinates (Angstroms)
 Number     Number       Type             X           Y           Z
 ---------------------------------------------------------------------
      1          8           0       -1.175754    0.019284   -0.016986
      2          1           0       -1.691449   -0.805349   -0.017719
      3          1           0       -1.769129    0.789031   -0.028240
      4          8           0        1.206393   -0.109783    0.010146
      5          1           0        1.705851    0.189091    0.789549
      6          1           0        1.610213    0.207480   -0.815982
      7          1           0        0.080960    0.049925    0.079233
 ---------------------------------------------------------------------
                    Distance matrix (angstroms):
                    1          2          3          4          5
     1  O    0.000000
     2  H    0.972606   0.000000
     3  H    0.971973   1.596306   0.000000
     4  O    2.385795   2.980281   3.108549   0.000000
     5  H    2.997162   3.630735   3.619971   0.972755   0.000000
     6  H    2.904380   3.544576   3.518337   0.972735   1.608481
     7  H    1.260765   1.970363   1.995159   1.138806   1.778816
                    6          7
     6  H    0.000000
     7  H    1.779001   0.000000
 Stoichiometry    H5O2(1+)
 Framework group  C1[X(H5O2)]
 Deg. of freedom    15
 Full point group                 C1      NOp   1
 Omega: Change in point group or standard orientation.

 Old FWG=CS   [SG(H3O2),X(H2)]
 New FWG=C01  [X(H5O2)]
 Largest Abelian subgroup         C1      NOp   1
 Largest concise Abelian subgroup C1      NOp   1
                         Standard orientation:                         
 ---------------------------------------------------------------------
 Center     Atomic      Atomic             Coordinates (Angstroms)
 Number     Number       Type             X           Y           Z
 ---------------------------------------------------------------------
      1          8           0       -1.184905    0.011161    0.001099
      2          1           0       -1.685092   -0.807906   -0.156715
      3          1           0       -1.792635    0.755956    0.144889
      4          8           0        1.199391   -0.071744   -0.015644
      5          1           0        1.702099    0.079543    0.803287
      6          1           0        1.587705    0.408813   -0.766970
      7          1           0        0.072040    0.048259    0.091871
 ---------------------------------------------------------------------
 Rotational constants (GHZ):    181.8835067      8.6620661      8.6357944
 Standard basis: 6-31G(d,p) (6D, 7F)
 There are    55 symmetry adapted basis functions of A   symmetry.
 Integral buffers will be    131072 words long.
 Raffenetti 2 integral format.
 Two-electron integral symmetry is turned on.
    55 basis functions,    91 primitive gaussians,    55 cartesian basis functions
    10 alpha electrons       10 beta electrons
       nuclear repulsion energy        46.7161330712 Hartrees.
 NAtoms=    7 NActive=    7 NUniq=    7 SFac= 1.00D+00 NAtFMM=   60 NAOKFM=F Big=F
 One-electron integrals computed using PRISM.
 NBasis=    55 RedAO= T  NBF=    55
 NBsUse=    55 1.00D-06 NBFU=    55
 Initial guess read from the read-write file.
 B after Tr=     0.000000    0.000000    0.000000
         Rot=    1.000000    0.000000    0.000000    0.000000 Ang=   0.00 deg.
 Initial guess orbital symmetries:
       Occupied  (A) (A) (A) (A) (A) (A) (A) (A) (A) (A)
       Virtual   (A) (A) (A) (A) (A) (A) (A) (A) (A) (A) (A) (A)
                 (A) (A) (A) (A) (A) (A) (A) (A) (A) (A) (A) (A)
                 (A) (A) (A) (A) (A) (A) (A) (A) (A) (A) (A) (A)
                 (A) (A) (A) (A) (A) (A) (A) (A) (A)
 Harris functional with IExCor=  402 diagonalized for initial guess.
 ExpMin= 1.61D-01 ExpMax= 5.48D+03 ExpMxC= 8.25D+02 IAcc=1 IRadAn=         1 AccDes= 0.00D+00
 HarFok:  IExCor=  402 AccDes= 0.00D+00 IRadAn=         1 IDoV= 1
 ScaDFX=  1.000000  1.000000  1.000000  1.000000
 FoFCou: FMM=F IPFlag=           0 FMFlag=      100000 FMFlg1=           0
         NFxFlg=           0 DoJE=T BraDBF=F KetDBF=T FulRan=T
         Omega=  0.000000  0.000000  1.000000  0.000000  0.000000 ICntrl=     500 IOpCl=  0
         NMat0=    1 NMatS0=    1 NMatT0=    0 NMatD0=    1 NMtDS0=    0 NMtDT0=    0
         I1Cent=           4 NGrid=           0.
 Petite list used in FoFCou.
 Requested convergence on RMS density matrix=1.00D-08 within 128 cycles.
 Requested convergence on MAX density matrix=1.00D-06.
 Requested convergence on             energy=1.00D-06.
 No special actions if energy rises.
 Keep R1 ints in memory in canonical form, NReq=2144692.
 Integral accuracy reduced to 1.0D-05 until final iterations.
 Initial convergence to 1.0D-05 achieved.  Increase integral accuracy.
 SCF Done:  E(RB3LYP) =  -153.190394405     A.U. after   12 cycles
             Convg  =    0.1898D-08             -V/T =  2.0089
 Calling FoFJK, ICntrl=      2127 FMM=F ISym2X=0 I1Cent= 0 IOpClX= 0 NMat=1 NMatS=1 NMatT=0.
 ***** Axes restored to original set *****
 -------------------------------------------------------------------
 Center     Atomic                   Forces (Hartrees/Bohr)
 Number     Number              X              Y              Z
 -------------------------------------------------------------------
      1        8          -0.006349763    0.002757287    0.000832749
      2        1           0.003158506    0.002920838    0.000572424
      3        1           0.002639717   -0.002979371    0.000679300
      4        8          -0.001405718    0.002531810    0.004463334
      5        1           0.003236784    0.000030872   -0.002003295
      6        1           0.002030499    0.000437535    0.001417991
      7        1          -0.003310025   -0.005698971   -0.005962503
 -------------------------------------------------------------------
 Cartesian Forces:  Max     0.006349763 RMS     0.003176299

 GradGradGradGradGradGradGradGradGradGradGradGradGradGradGradGradGradGrad
 Berny optimization.
 Using GEDIIS/GDIIS optimizer.
 Internal  Forces:  Max     0.006500807 RMS     0.002659200
 Search for a local minimum.
 Step number   4 out of a maximum of   28
 All quantities printed in internal units (Hartrees-Bohrs-Radians)
 Mixed Optimization -- RFO/linear search
 Update second derivatives using D2CorX and points    1    2    4    3
 DE=  4.45D-04 DEPred=-3.17D-04 R=-1.40D+00
 Trust test=-1.40D+00 RLast= 2.81D-01 DXMaxT set to 1.53D-01
 The second derivative matrix:
                          R1        R2        R3        R4        R5
           R1           0.59781
           R2           0.01845   0.59981
           R3           0.01972   0.01910   0.13360
           R4          -0.00482  -0.00502   0.01827   0.55117
           R5          -0.00457  -0.00478   0.01786  -0.01963   0.55114
           R6          -0.02708  -0.02604   0.08830  -0.02190  -0.02168
           A1          -0.00196  -0.00197   0.00252   0.00107   0.00100
           A2           0.00233   0.00219  -0.00380   0.00095   0.00102
           A3          -0.00018  -0.00008  -0.00054  -0.00007  -0.00009
           A4           0.02883   0.02914  -0.01564   0.01874   0.01894
           A5          -0.00961  -0.00971  -0.02474  -0.01458  -0.01491
           A6          -0.00532  -0.00584  -0.02977  -0.01346  -0.01359
           A7           0.00805   0.00703  -0.00853   0.00371   0.00412
           A8           0.00014   0.00057  -0.00123  -0.00192  -0.00201
           D1          -0.00101  -0.00099   0.00242   0.00190   0.00184
           D2          -0.00015  -0.00006  -0.00099  -0.00215  -0.00214
           D3           0.00022   0.00013   0.00091   0.00217   0.00216
           D4           0.00108   0.00106  -0.00251  -0.00189  -0.00182
                          R6        A1        A2        A3        A4
           R6           0.22845
           A1          -0.00002   0.16061
           A2           0.00303  -0.00052   0.16048
           A3           0.00093   0.00001  -0.00028   0.16013
           A4           0.02242  -0.00266   0.00078  -0.00034   0.16630
           A5           0.03677   0.00207  -0.00246   0.00090  -0.00489
           A6           0.03769   0.00089  -0.00083   0.00016  -0.00191
           A7           0.00021  -0.00228   0.00354  -0.00177   0.00465
           A8           0.00277   0.00014  -0.00094   0.00066   0.00103
           D1           0.00046   0.00058  -0.00052   0.00003  -0.00262
           D2          -0.00080  -0.00026   0.00009   0.00016   0.00179
           D3           0.00082   0.00024  -0.00007  -0.00017  -0.00174
           D4          -0.00043  -0.00060   0.00054  -0.00004   0.00267
                          A5        A6        A7        A8        D1
           A5           0.14352
           A6          -0.02212   0.13701
           A7          -0.01084  -0.00035   0.02570
           A8           0.00138  -0.00155  -0.00697   0.00500
           D1           0.00223   0.00102  -0.00242   0.00026   0.00283
           D2          -0.00071  -0.00073  -0.00030   0.00049  -0.00021
           D3           0.00062   0.00071   0.00047  -0.00053   0.00019
           D4          -0.00233  -0.00103   0.00258  -0.00030  -0.00055
                          D2        D3        D4
           D2           0.00250
           D3          -0.00020   0.00250
           D4           0.00021  -0.00019   0.00287
 ITU= -1  1  1  0
 Use linear search instead of GDIIS.
 Quartic linear search produced a step of -0.71753.
 Iteration  1 RMS(Cart)=  0.04723853 RMS(Int)=  0.00597909
 Iteration  2 RMS(Cart)=  0.00458813 RMS(Int)=  0.00011509
 Iteration  3 RMS(Cart)=  0.00003936 RMS(Int)=  0.00011261
 Iteration  4 RMS(Cart)=  0.00000000 RMS(Int)=  0.00011261
 Variable       Old X    -DE/DX   Delta X   Delta X   Delta X     New X
                                 (Linear)    (Quad)   (Total)
    R1        1.83796  -0.00415  -0.00469   0.00000  -0.00469   1.83327
    R2        1.83676  -0.00398  -0.00450   0.00000  -0.00450   1.83226
    R3        2.38250   0.00030   0.05062   0.00000   0.05062   2.43312
    R4        1.83824  -0.00007  -0.00186   0.00000  -0.00186   1.83638
    R5        1.83820  -0.00022  -0.00183   0.00000  -0.00183   1.83637
    R6        2.15203   0.00330  -0.03597   0.00000  -0.03596   2.11607
    A1        1.92597   0.00093   0.00026   0.00000   0.00047   1.92644
    A2        2.15218  -0.00116   0.00141   0.00000   0.00162   2.15380
    A3        2.20205   0.00043   0.00047   0.00000   0.00068   2.20274
    A4        1.94670  -0.00362   0.00745   0.00000   0.00726   1.95396
    A5        1.99953   0.00455   0.02984   0.00000   0.02970   2.02923
    A6        1.99989   0.00147   0.02958   0.00000   0.02943   2.02932
    A7        3.32261  -0.00650  -0.11887   0.00000  -0.11888   3.20373
    A8        2.85799   0.00132   0.13747   0.00000   0.13750   2.99549
    D1       -1.96348   0.00052   0.02182   0.00000   0.02188  -1.94160
    D2        1.96341   0.00029  -0.02177   0.00000  -0.02183   1.94159
    D3        1.17818  -0.00034   0.02177   0.00000   0.02183   1.20000
    D4       -1.17812  -0.00057  -0.02181   0.00000  -0.02188  -1.19999
         Item               Value     Threshold  Converged?
 Maximum Force            0.006501     0.000450     NO 
 RMS     Force            0.002659     0.000300     NO 
 Maximum Displacement     0.108757     0.001800     NO 
 RMS     Displacement     0.047398     0.001200     NO 
 Predicted change in Energy=-7.582198D-05
 GradGradGradGradGradGradGradGradGradGradGradGradGradGradGradGradGradGrad

                          Input orientation:                          
 ---------------------------------------------------------------------
 Center     Atomic      Atomic             Coordinates (Angstroms)
 Number     Number       Type             X           Y           Z
 ---------------------------------------------------------------------
      1          8           0       -1.190779    0.010707   -0.004638
      2          1           0       -1.726664   -0.797974   -0.005067
      3          1           0       -1.761944    0.794204   -0.007624
      4          8           0        1.211985   -0.088105    0.002983
      5          1           0        1.682247    0.204048    0.801632
      6          1           0        1.655739    0.208796   -0.808967
      7          1           0        0.096500    0.008004    0.021681
 ---------------------------------------------------------------------
                    Distance matrix (angstroms):
                    1          2          3          4          5
     1  O    0.000000
     2  H    0.970123   0.000000
     3  H    0.969591   1.592571   0.000000
     4  O    2.404807   3.023184   3.102070   0.000000
     5  H    2.990273   3.643554   3.586869   0.971771   0.000000
     6  H    2.964600   3.619461   3.558850   0.971766   1.610824
     7  H    1.287551   1.993550   2.018114   1.119774   1.778019
                    6          7
     6  H    0.000000
     7  H    1.778067   0.000000
 Stoichiometry    H5O2(1+)
 Framework group  C1[X(H5O2)]
 Deg. of freedom    15
 Full point group                 C1      NOp   1
 Largest Abelian subgroup         C1      NOp   1
 Largest concise Abelian subgroup C1      NOp   1
                         Standard orientation:                         
 ---------------------------------------------------------------------
 Center     Atomic      Atomic             Coordinates (Angstroms)
 Number     Number       Type             X           Y           Z
 ---------------------------------------------------------------------
      1          8           0       -1.196418    0.010029    0.000501
      2          1           0       -1.725325   -0.800905   -0.060995
      3          1           0       -1.774309    0.786351    0.059431
      4          8           0        1.207120   -0.067871   -0.005565
      5          1           0        1.677393    0.165928    0.812067
      6          1           0        1.645714    0.294696   -0.793290
      7          1           0        0.090914    0.016662    0.023299
 ---------------------------------------------------------------------
 Rotational constants (GHZ):    183.6331828      8.5273995      8.5075952
 Standard basis: 6-31G(d,p) (6D, 7F)
 There are    55 symmetry adapted basis functions of A   symmetry.
 Integral buffers will be    131072 words long.
 Raffenetti 2 integral format.
 Two-electron integral symmetry is turned on.
    55 basis functions,    91 primitive gaussians,    55 cartesian basis functions
    10 alpha electrons       10 beta electrons
       nuclear repulsion energy        46.5746332688 Hartrees.
 NAtoms=    7 NActive=    7 NUniq=    7 SFac= 1.00D+00 NAtFMM=   60 NAOKFM=F Big=F
 One-electron integrals computed using PRISM.
 NBasis=    55 RedAO= T  NBF=    55
 NBsUse=    55 1.00D-06 NBFU=    55
 Initial guess read from the read-write file.
 B after Tr=     0.000000    0.000000    0.000000
         Rot=    1.000000    0.000000    0.000000    0.000000 Ang=   0.00 deg.
 Initial guess orbital symmetries:
       Occupied  (A) (A) (A) (A) (A) (A) (A) (A) (A) (A)
       Virtual   (A) (A) (A) (A) (A) (A) (A) (A) (A) (A) (A) (A)
                 (A) (A) (A) (A) (A) (A) (A) (A) (A) (A) (A) (A)
                 (A) (A) (A) (A) (A) (A) (A) (A) (A) (A) (A) (A)
                 (A) (A) (A) (A) (A) (A) (A) (A) (A)
 Harris functional with IExCor=  402 diagonalized for initial guess.
 ExpMin= 1.61D-01 ExpMax= 5.48D+03 ExpMxC= 8.25D+02 IAcc=1 IRadAn=         1 AccDes= 0.00D+00
 HarFok:  IExCor=  402 AccDes= 0.00D+00 IRadAn=         1 IDoV= 1
 ScaDFX=  1.000000  1.000000  1.000000  1.000000
 FoFCou: FMM=F IPFlag=           0 FMFlag=      100000 FMFlg1=           0
         NFxFlg=           0 DoJE=T BraDBF=F KetDBF=T FulRan=T
         Omega=  0.000000  0.000000  1.000000  0.000000  0.000000 ICntrl=     500 IOpCl=  0
         NMat0=    1 NMatS0=    1 NMatT0=    0 NMatD0=    1 NMtDS0=    0 NMtDT0=    0
         I1Cent=           4 NGrid=           0.
 Petite list used in FoFCou.
 Requested convergence on RMS density matrix=1.00D-08 within 128 cycles.
 Requested convergence on MAX density matrix=1.00D-06.
 Requested convergence on             energy=1.00D-06.
 No special actions if energy rises.
 Keep R1 ints in memory in canonical form, NReq=2144692.
 Integral accuracy reduced to 1.0D-05 until final iterations.
 Initial convergence to 1.0D-05 achieved.  Increase integral accuracy.
 SCF Done:  E(RB3LYP) =  -153.190923967     A.U. after   10 cycles
             Convg  =    0.6580D-08             -V/T =  2.0089
 Calling FoFJK, ICntrl=      2127 FMM=F ISym2X=0 I1Cent= 0 IOpClX= 0 NMat=1 NMatS=1 NMatT=0.
 ***** Axes restored to original set *****
 -------------------------------------------------------------------
 Center     Atomic                   Forces (Hartrees/Bohr)
 Number     Number              X              Y              Z
 -------------------------------------------------------------------
      1        8          -0.000292800    0.000635044    0.000265061
      2        1           0.001492898    0.001511494    0.000134214
      3        1           0.001353944   -0.001612627    0.000182480
      4        8           0.000418694   -0.000976683    0.001140353
      5        1           0.001792686    0.000622192   -0.000767348
      6        1           0.001435622    0.000725459    0.000640959
      7        1          -0.006201045   -0.000904879   -0.001595718
 -------------------------------------------------------------------
 Cartesian Forces:  Max     0.006201045 RMS     0.001704241

 GradGradGradGradGradGradGradGradGradGradGradGradGradGradGradGradGradGrad
 Berny optimization.
 Using GEDIIS/GDIIS optimizer.
 Internal  Forces:  Max     0.003582406 RMS     0.001483856
 Search for a local minimum.
 Step number   5 out of a maximum of   28
 All quantities printed in internal units (Hartrees-Bohrs-Radians)
 Mixed Optimization -- RFO/linear search
 Update second derivatives using D2CorX and points    1    2    4    3    5
 The second derivative matrix:
                          R1        R2        R3        R4        R5
           R1           0.57985
           R2           0.00019   0.58124
           R3           0.00816   0.00728   0.12445
           R4          -0.00691  -0.00720   0.01100   0.56175
           R5          -0.00660  -0.00691   0.01044  -0.00923   0.56137
           R6           0.00111   0.00235   0.09005   0.00325   0.00362
           A1          -0.00087  -0.00086   0.00249   0.00248   0.00237
           A2          -0.00132  -0.00151  -0.00402  -0.00207  -0.00195
           A3          -0.00105  -0.00095  -0.00071  -0.00058  -0.00062
           A4           0.00844   0.00851  -0.02054   0.00299   0.00336
           A5          -0.00092  -0.00094  -0.02550  -0.00793  -0.00845
           A6          -0.00348  -0.00398  -0.02961  -0.01202  -0.01226
           A7          -0.00223  -0.00340  -0.00745  -0.00598  -0.00526
           A8          -0.00096  -0.00050  -0.00166  -0.00148  -0.00169
           D1           0.00113   0.00115   0.00209   0.00352   0.00343
           D2          -0.00056  -0.00046  -0.00084  -0.00239  -0.00238
           D3           0.00064   0.00053   0.00072   0.00235   0.00235
           D4          -0.00105  -0.00109  -0.00221  -0.00356  -0.00346
                          R6        A1        A2        A3        A4
           R6           0.25068
           A1           0.00034   0.16072
           A2           0.00268  -0.00058   0.16038
           A3           0.00081   0.00004  -0.00036   0.16013
           A4           0.02268  -0.00290   0.00002  -0.00067   0.16068
           A5           0.03597   0.00214  -0.00189   0.00112  -0.00231
           A6           0.03530   0.00095  -0.00059   0.00026  -0.00091
           A7          -0.00172  -0.00267   0.00349  -0.00206   0.00369
           A8           0.00275   0.00038  -0.00130   0.00072  -0.00031
           D1           0.00087   0.00058  -0.00039   0.00006  -0.00210
           D2          -0.00086  -0.00024   0.00003   0.00016   0.00163
           D3           0.00091   0.00021   0.00001  -0.00017  -0.00154
           D4          -0.00081  -0.00061   0.00043  -0.00008   0.00220
                          A5        A6        A7        A8        D1
           A5           0.14094
           A6          -0.02293   0.13703
           A7          -0.00936   0.00028   0.02670
           A8           0.00223  -0.00115  -0.00861   0.00562
           D1           0.00161   0.00076  -0.00199   0.00036   0.00270
           D2          -0.00047  -0.00066  -0.00059   0.00053  -0.00016
           D3           0.00034   0.00061   0.00083  -0.00061   0.00014
           D4          -0.00174  -0.00081   0.00223  -0.00043  -0.00043
                          D2        D3        D4
           D2           0.00250
           D3          -0.00020   0.00250
           D4           0.00016  -0.00013   0.00275
 ITU=  0 -1  1  1  0
 Use linear search instead of GDIIS.
     Eigenvalues ---    0.00176   0.00230   0.00232   0.01155   0.03103
     Eigenvalues ---    0.08269   0.14461   0.16001   0.16057   0.16405
     Eigenvalues ---    0.29877   0.54920   0.57078   0.58027   0.58658
 RFO step:  Lambda=-8.47328996D-04 EMin= 1.75570387D-03
 Quartic linear search produced a step of -0.00375.
 Maximum step size (   0.153) exceeded in Quadratic search.
    -- Step size scaled by   0.402
 Iteration  1 RMS(Cart)=  0.03777162 RMS(Int)=  0.00287811
 Iteration  2 RMS(Cart)=  0.00270175 RMS(Int)=  0.00039802
 Iteration  3 RMS(Cart)=  0.00001304 RMS(Int)=  0.00039794
 Iteration  4 RMS(Cart)=  0.00000000 RMS(Int)=  0.00039794
 Variable       Old X    -DE/DX   Delta X   Delta X   Delta X     New X
                                 (Linear)    (Quad)   (Total)
    R1        1.83327  -0.00208  -0.00001  -0.00117  -0.00117   1.83209
    R2        1.83226  -0.00210  -0.00001  -0.00138  -0.00139   1.83087
    R3        2.43312  -0.00256   0.00007  -0.04352  -0.04346   2.38966
    R4        1.83638   0.00042   0.00000  -0.00021  -0.00023   1.83615
    R5        1.83637   0.00034   0.00000  -0.00030  -0.00030   1.83607
    R6        2.11607   0.00358  -0.00005   0.02856   0.02853   2.14460
    A1        1.92644   0.00034   0.00000   0.00163   0.00151   1.92795
    A2        2.15380  -0.00041   0.00000  -0.00141  -0.00153   2.15227
    A3        2.20274   0.00008   0.00000   0.00032   0.00020   2.20294
    A4        1.95396  -0.00209   0.00001  -0.01472  -0.01577   1.93818
    A5        2.02923   0.00169   0.00004  -0.01611  -0.01682   2.01240
    A6        2.02932   0.00097   0.00004  -0.01732  -0.01805   2.01127
    A7        3.20373  -0.00158  -0.00018  -0.07358  -0.07383   3.12989
    A8        2.99549   0.00008   0.00020  -0.11978  -0.11942   2.87607
    D1       -1.94160  -0.00012   0.00003  -0.01300  -0.01262  -1.95423
    D2        1.94159   0.00033  -0.00003   0.03608   0.03570   1.97729
    D3        1.20000  -0.00035   0.00003  -0.03860  -0.03823   1.16178
    D4       -1.19999   0.00010  -0.00003   0.01047   0.01010  -1.18990
         Item               Value     Threshold  Converged?
 Maximum Force            0.003582     0.000450     NO 
 RMS     Force            0.001484     0.000300     NO 
 Maximum Displacement     0.102119     0.001800     NO 
 RMS     Displacement     0.038331     0.001200     NO 
 Predicted change in Energy=-2.833038D-04
 GradGradGradGradGradGradGradGradGradGradGradGradGradGradGradGradGradGrad

                          Input orientation:                          
 ---------------------------------------------------------------------
 Center     Atomic      Atomic             Coordinates (Angstroms)
 Number     Number       Type             X           Y           Z
 ---------------------------------------------------------------------
      1          8           0       -1.181765    0.014672    0.000870
      2          1           0       -1.707890   -0.799605    0.009832
      3          1           0       -1.760159    0.791825    0.014105
      4          8           0        1.209422   -0.104920   -0.003893
      5          1           0        1.643264    0.210049    0.806464
      6          1           0        1.681898    0.203142   -0.795020
      7          1           0        0.082315    0.024516   -0.032358
 ---------------------------------------------------------------------
                    Distance matrix (angstroms):
                    1          2          3          4          5
     1  O    0.000000
     2  H    0.969502   0.000000
     3  H    0.968856   1.592294   0.000000
     4  O    2.394180   2.998914   3.102078   0.000000
     5  H    2.944137   3.589465   3.542539   0.971650   0.000000
     6  H    2.978175   3.625459   3.584548   0.971606   1.601965
     7  H    1.264555   1.971241   1.996405   1.134872   1.781743
                    6          7
     6  H    0.000000
     7  H    1.781075   0.000000
 Stoichiometry    H5O2(1+)
 Framework group  C1[X(H5O2)]
 Deg. of freedom    15
 Full point group                 C1      NOp   1
 Largest Abelian subgroup         C1      NOp   1
 Largest concise Abelian subgroup C1      NOp   1
                         Standard orientation:                         
 ---------------------------------------------------------------------
 Center     Atomic      Atomic             Coordinates (Angstroms)
 Number     Number       Type             X           Y           Z
 ---------------------------------------------------------------------
      1          8           0       -1.189710    0.010702   -0.002657
      2          1           0       -1.703688   -0.808050    0.070876
      3          1           0       -1.779640    0.777589   -0.053145
      4          8           0        1.202995   -0.072820    0.006705
      5          1           0        1.629604    0.312873    0.789871
      6          1           0        1.673270    0.177638   -0.805779
      7          1           0        0.074180    0.036896   -0.034204
 ---------------------------------------------------------------------
 Rotational constants (GHZ):    183.0448892      8.6077680      8.5821519
 Standard basis: 6-31G(d,p) (6D, 7F)
 There are    55 symmetry adapted basis functions of A   symmetry.
 Integral buffers will be    131072 words long.
 Raffenetti 2 integral format.
 Two-electron integral symmetry is turned on.
    55 basis functions,    91 primitive gaussians,    55 cartesian basis functions
    10 alpha electrons       10 beta electrons
       nuclear repulsion energy        46.6903453114 Hartrees.
 NAtoms=    7 NActive=    7 NUniq=    7 SFac= 1.00D+00 NAtFMM=   60 NAOKFM=F Big=F
 One-electron integrals computed using PRISM.
 NBasis=    55 RedAO= T  NBF=    55
 NBsUse=    55 1.00D-06 NBFU=    55
 Initial guess read from the read-write file.
 B after Tr=     0.000000    0.000000    0.000000
         Rot=    1.000000    0.000000    0.000000    0.000000 Ang=   0.00 deg.
 Initial guess orbital symmetries:
       Occupied  (A) (A) (A) (A) (A) (A) (A) (A) (A) (A)
       Virtual   (A) (A) (A) (A) (A) (A) (A) (A) (A) (A) (A) (A)
                 (A) (A) (A) (A) (A) (A) (A) (A) (A) (A) (A) (A)
                 (A) (A) (A) (A) (A) (A) (A) (A) (A) (A) (A) (A)
                 (A) (A) (A) (A) (A) (A) (A) (A) (A)
 Harris functional with IExCor=  402 diagonalized for initial guess.
 ExpMin= 1.61D-01 ExpMax= 5.48D+03 ExpMxC= 8.25D+02 IAcc=1 IRadAn=         1 AccDes= 0.00D+00
 HarFok:  IExCor=  402 AccDes= 0.00D+00 IRadAn=         1 IDoV= 1
 ScaDFX=  1.000000  1.000000  1.000000  1.000000
 FoFCou: FMM=F IPFlag=           0 FMFlag=      100000 FMFlg1=           0
         NFxFlg=           0 DoJE=T BraDBF=F KetDBF=T FulRan=T
         Omega=  0.000000  0.000000  1.000000  0.000000  0.000000 ICntrl=     500 IOpCl=  0
         NMat0=    1 NMatS0=    1 NMatT0=    0 NMatD0=    1 NMtDS0=    0 NMtDT0=    0
         I1Cent=           4 NGrid=           0.
 Petite list used in FoFCou.
 Requested convergence on RMS density matrix=1.00D-08 within 128 cycles.
 Requested convergence on MAX density matrix=1.00D-06.
 Requested convergence on             energy=1.00D-06.
 No special actions if energy rises.
 Keep R1 ints in memory in canonical form, NReq=2144685.
 Integral accuracy reduced to 1.0D-05 until final iterations.
 Initial convergence to 1.0D-05 achieved.  Increase integral accuracy.
 SCF Done:  E(RB3LYP) =  -153.190974722     A.U. after   11 cycles
             Convg  =    0.2694D-08             -V/T =  2.0088
 Calling FoFJK, ICntrl=      2127 FMM=F ISym2X=0 I1Cent= 0 IOpClX= 0 NMat=1 NMatS=1 NMatT=0.
 ***** Axes restored to original set *****
 -------------------------------------------------------------------
 Center     Atomic                   Forces (Hartrees/Bohr)
 Number     Number              X              Y              Z
 -------------------------------------------------------------------
      1        8          -0.001821221    0.001623333   -0.000444242
      2        1           0.001421499    0.000540088   -0.000192957
      3        1           0.000959604   -0.000669175   -0.000242191
      4        8          -0.000752402    0.001075414   -0.001659290
      5        1           0.001819031    0.000401439   -0.000085361
      6        1           0.002400960    0.000239542    0.000224950
      7        1          -0.004027471   -0.003210642    0.002399092
 -------------------------------------------------------------------
 Cartesian Forces:  Max     0.004027471 RMS     0.001633524

 GradGradGradGradGradGradGradGradGradGradGradGradGradGradGradGradGradGrad
 Berny optimization.
 Using GEDIIS/GDIIS optimizer.
 Internal  Forces:  Max     0.003336217 RMS     0.001415181
 Search for a local minimum.
 Step number   6 out of a maximum of   28
 All quantities printed in internal units (Hartrees-Bohrs-Radians)
 Mixed Optimization -- RFO/linear search
 Update second derivatives using D2CorX and points    1    2    4    3    5
                                                      6
 DE= -5.08D-05 DEPred=-2.83D-04 R= 1.79D-01
 Trust test= 1.79D-01 RLast= 1.62D-01 DXMaxT set to 1.53D-01
 The second derivative matrix:
                          R1        R2        R3        R4        R5
           R1           0.54777
           R2          -0.03291   0.54712
           R3           0.00526   0.00484   0.12814
           R4          -0.03121  -0.03232   0.01099   0.54270
           R5          -0.03202  -0.03307   0.01136  -0.02883   0.54147
           R6          -0.03037  -0.02983   0.09445  -0.02259  -0.02253
           A1          -0.00403  -0.00400   0.00487  -0.00014   0.00020
           A2          -0.00042  -0.00069  -0.00594  -0.00147  -0.00174
           A3          -0.00358  -0.00355   0.00017  -0.00294  -0.00289
           A4           0.00592   0.00574  -0.02549   0.00157   0.00100
           A5          -0.00277  -0.00270  -0.02162  -0.00997  -0.01005
           A6          -0.00232  -0.00242  -0.02520  -0.01022  -0.00918
           A7           0.00068   0.00031  -0.00523   0.00017   0.00275
           A8          -0.00763  -0.00710   0.00365  -0.00676  -0.00578
           D1           0.00059   0.00069   0.00325   0.00327   0.00339
           D2          -0.00028  -0.00036  -0.00244  -0.00279  -0.00328
           D3           0.00024   0.00032   0.00240   0.00271   0.00323
           D4          -0.00063  -0.00073  -0.00330  -0.00335  -0.00344
                          R6        A1        A2        A3        A4
           R6           0.21799
           A1          -0.00212   0.16097
           A2           0.00262  -0.00104   0.16088
           A3          -0.00157  -0.00021  -0.00035   0.15985
           A4           0.02106  -0.00386   0.00095  -0.00071   0.16118
           A5           0.03565   0.00242  -0.00247   0.00103  -0.00282
[...]
     5   1     0.14  -0.03  -0.19     0.25  -0.09  -0.08    -0.02   0.00   0.15
     6   1     0.13   0.18  -0.01    -0.10   0.06  -0.06    -0.35  -0.17  -0.08
     7   1    -0.88   0.00  -0.07     0.19   0.00  -0.88     0.00  -0.80   0.00
                    10                     11                     12
                     A                      A                      A
 Frequencies --  1690.9929              1769.4375              3750.8800
 Red. masses --     1.0788                 1.0981                 1.0414
 Frc consts  --     1.8176                 2.0257                 8.6323
 IR Inten    --     4.0745              1358.5302               229.2852
  Atom  AN      X      Y      Z        X      Y      Z        X      Y      Z
     1   8    -0.04  -0.01   0.02     0.05  -0.01   0.00    -0.03   0.01   0.01
     2   1     0.25  -0.26   0.04    -0.37   0.27  -0.08     0.23   0.24  -0.38
     3   1     0.39   0.16  -0.27    -0.29  -0.11   0.26     0.24  -0.37   0.16
     4   8     0.04  -0.01  -0.02     0.05   0.01   0.00    -0.03  -0.01   0.01
     5   1    -0.39   0.16   0.27    -0.29   0.11   0.26     0.25   0.39   0.16
     6   1    -0.25  -0.26  -0.04    -0.37  -0.27  -0.08     0.24  -0.25  -0.40
     7   1     0.00   0.48   0.00    -0.40   0.00  -0.29    -0.03   0.00   0.01
                    13                     14                     15
                     A                      A                      A
 Frequencies --  3759.8667              3853.5054              3854.1449
 Red. masses --     1.0444                 1.0870                 1.0871
 Frc consts  --     8.6985                 9.5103                 9.5139
 IR Inten    --     7.8427               249.6729               303.8091
  Atom  AN      X      Y      Z        X      Y      Z        X      Y      Z
     1   8     0.03  -0.01  -0.01     0.00   0.02  -0.01     0.00   0.05  -0.04
     2   1    -0.24  -0.26   0.40    -0.09  -0.09   0.15    -0.31  -0.29   0.49
     3   1    -0.25   0.39  -0.16     0.11  -0.17   0.06     0.37  -0.56   0.21
     4   8    -0.03  -0.01   0.01     0.00  -0.05  -0.04     0.00   0.02   0.01
     5   1     0.24   0.37   0.16     0.37   0.56   0.21    -0.11  -0.17  -0.07
     6   1     0.23  -0.24  -0.38    -0.31   0.29   0.49     0.09  -0.09  -0.15
     7   1     0.00  -0.01   0.00     0.00   0.00   0.00     0.00   0.00   0.00

 -------------------
 - Thermochemistry -
 -------------------
 Temperature   298.150 Kelvin.  Pressure   1.00000 Atm.
 Atom     1 has atomic number  8 and mass  15.99491
 Atom     2 has atomic number  1 and mass   1.00783
 Atom     3 has atomic number  1 and mass   1.00783
 Atom     4 has atomic number  8 and mass  15.99491
 Atom     5 has atomic number  1 and mass   1.00783
 Atom     6 has atomic number  1 and mass   1.00783
 Atom     7 has atomic number  1 and mass   1.00783
 Molecular mass:    37.02895 amu.
 Principal axes and moments of inertia in atomic units:
                           1         2         3
     Eigenvalues --    10.11291 208.93022 210.10969
           X            0.99983  -0.00001  -0.01865
           Y            0.00001   1.00000  -0.00004
           Z            0.01865   0.00004   0.99983
 This molecule is an asymmetric top.
 Rotational symmetry number  1.
 Rotational temperatures (Kelvin)      8.56467     0.41456     0.41223
 Rotational constants (GHZ):         178.45906     8.63801     8.58952
 Zero-point vibrational energy     151537.3 (Joules/Mol)
                                   36.21829 (Kcal/Mol)
 Warning -- explicit consideration of   6 degrees of freedom as
           vibrations may cause significant error
 Vibrational temperatures:    236.39   546.20   607.38   694.70   735.72
          (Kelvin)            889.66  1562.63  2087.34  2216.80  2432.96
                             2545.82  5396.67  5409.60  5544.33  5545.25
 
 Zero-point correction=                           0.057718 (Hartree/Particle)
 Thermal correction to Energy=                    0.062430
 Thermal correction to Enthalpy=                  0.063375
 Thermal correction to Gibbs Free Energy=         0.033082
 Sum of electronic and zero-point Energies=           -153.134129
 Sum of electronic and thermal Energies=              -153.129416
 Sum of electronic and thermal Enthalpies=            -153.128472
 Sum of electronic and thermal Free Energies=         -153.158764
 
                     E (Thermal)             CV                S
                      KCal/Mol        Cal/Mol-Kelvin    Cal/Mol-Kelvin
 Total                   39.176             14.802             63.756
 Electronic               0.000              0.000              0.000
 Translational            0.889              2.981             36.757
 Rotational               0.889              2.981             20.723
 Vibrational             37.398              8.840              6.276
 Vibration     1          0.623              1.886              2.500
 Vibration     2          0.750              1.514              1.041
 Vibration     3          0.784              1.422              0.885
 Vibration     4          0.839              1.288              0.702
 Vibration     5          0.866              1.225              0.630
 Vibration     6          0.978              0.993              0.419
                       Q            Log10(Q)             Ln(Q)
 Total Bot       0.607243D-15        -15.216637        -35.037602
 Total V=0       0.214547D+12         11.331523         26.091797
 Vib (Bot)       0.909049D-26        -26.041413        -59.962569
 Vib (Bot)    1  0.122880D+01          0.089482          0.206041
 Vib (Bot)    2  0.476390D+00         -0.322037         -0.741518
 Vib (Bot)    3  0.415260D+00         -0.381680         -0.878851
 Vib (Bot)    4  0.345534D+00         -0.461510         -1.062665
 Vib (Bot)    5  0.318156D+00         -0.497360         -1.145214
 Vib (Bot)    6  0.236916D+00         -0.625405         -1.440048
 Vib (V=0)       0.321179D+01          0.506748          1.166830
 Vib (V=0)    1  0.182663D+01          0.261652          0.602475
 Vib (V=0)    2  0.119061D+01          0.075771          0.174469
 Vib (V=0)    3  0.114995D+01          0.060681          0.139722
 Vib (V=0)    4  0.110778D+01          0.044453          0.102356
 Vib (V=0)    5  0.109264D+01          0.038477          0.088598
 Vib (V=0)    6  0.105329D+01          0.022548          0.051918
 Electronic      0.100000D+01          0.000000          0.000000
 Translational   0.885661D+07          6.947267         15.996674
 Rotational      0.754238D+04          3.877508          8.928293
 ***** Axes restored to original set *****
 -------------------------------------------------------------------
 Center     Atomic                   Forces (Hartrees/Bohr)
 Number     Number              X              Y              Z
 -------------------------------------------------------------------
      1        8           0.000041056    0.000029497   -0.000003888
      2        1          -0.000010773   -0.000007547    0.000006155
      3        1          -0.000027613   -0.000006231    0.000002741
      4        8           0.000059253    0.000014688   -0.000015992
      5        1          -0.000020724   -0.000004016   -0.000006203
      6        1          -0.000014098   -0.000008745    0.000010119
      7        1          -0.000027101   -0.000017644    0.000007069
 -------------------------------------------------------------------
 Cartesian Forces:  Max     0.000059253 RMS     0.000021303

 GradGradGradGradGradGradGradGradGradGradGradGradGradGradGradGradGradGrad
 Berny optimization.
 Internal  Forces:  Max     0.000030145 RMS     0.000013463
 Search for a local minimum.
 Step number   1 out of a maximum of    2
 All quantities printed in internal units (Hartrees-Bohrs-Radians)
 Second derivative matrix not updated -- analytic derivatives used.
 The second derivative matrix:
                          R1        R2        R3        R4        R5
           R1           0.51933
           R2          -0.00232   0.52147
           R3           0.00496   0.00454   0.14278
           R4           0.00049   0.00057  -0.00336   0.52122
           R5           0.00041   0.00044  -0.00337  -0.00238   0.51919
           R6          -0.00341  -0.00338   0.11493   0.00456   0.00503
           A1           0.00940   0.01003   0.00332   0.00052  -0.00004
           A2          -0.00014  -0.00519  -0.00051   0.00050  -0.00001
           A3          -0.00497  -0.00027  -0.00009   0.00043   0.00031
           A4           0.00005   0.00001  -0.01180   0.00886   0.00907
           A5           0.00025   0.00010   0.01072  -0.00091  -0.00504
           A6           0.00006   0.00002   0.00804  -0.00612  -0.00041
           A7          -0.00422  -0.00525  -0.00387  -0.00233  -0.00035
           A8          -0.00132  -0.00064   0.00011   0.00173   0.00207
           D1          -0.00378  -0.00405   0.00043   0.00439   0.00379
           D2          -0.00410  -0.00379  -0.00417  -0.00404  -0.00434
           D3           0.00393   0.00364   0.00422   0.00406   0.00441
           D4           0.00360   0.00390  -0.00038  -0.00437  -0.00372
                          R6        A1        A2        A3        A4
           R6           0.14307
           A1          -0.01195   0.06636
           A2           0.00787  -0.03705   0.05316
           A3           0.01069  -0.03538  -0.01057   0.05411
           A4           0.00341   0.00140  -0.00013  -0.00143   0.06513
           A5          -0.00003  -0.00118   0.00018   0.00422  -0.03561
           A6          -0.00047  -0.00078  -0.00092  -0.00036  -0.03757
           A7          -0.00290  -0.00869   0.00080  -0.00448  -0.00260
           A8           0.00116  -0.00079  -0.00265   0.00297   0.00180
           D1          -0.00036  -0.00615   0.00115   0.00308   0.00612
           D2          -0.00424  -0.00516   0.00198   0.00153  -0.00547
           D3           0.00436   0.00490  -0.00242  -0.00120   0.00539
           D4           0.00049   0.00589  -0.00159  -0.00274  -0.00619
                          A5        A6        A7        A8        D1
           A5           0.05398
           A6          -0.01041   0.05321
           A7          -0.00731   0.00716   0.04870
           A8          -0.00108   0.00066   0.00005   0.00700
           D1          -0.00277  -0.00168   0.00015   0.00113   0.00492
           D2           0.00177   0.00164  -0.00138  -0.00026   0.00041
           D3          -0.00172  -0.00184   0.00144   0.00075   0.00003
           D4           0.00282   0.00148  -0.00010  -0.00063  -0.00448
                          D2        D3        D4
           D2           0.00549
           D3          -0.00460   0.00448
           D4           0.00047  -0.00015   0.00480
 ITU=  0
     Eigenvalues ---    0.00063   0.00585   0.00789   0.00888   0.02391
     Eigenvalues ---    0.04361   0.06327   0.07106   0.10965   0.11062
     Eigenvalues ---    0.25971   0.51790   0.51940   0.52286   0.52315
 Angle between quadratic step and forces=  77.66 degrees.
 Linear search not attempted -- first point.
 Iteration  1 RMS(Cart)=  0.00059065 RMS(Int)=  0.00000027
 Iteration  2 RMS(Cart)=  0.00000028 RMS(Int)=  0.00000001
 Variable       Old X    -DE/DX   Delta X   Delta X   Delta X     New X
                                 (Linear)    (Quad)   (Total)
    R1        1.83538   0.00001   0.00000   0.00003   0.00003   1.83542
    R2        1.83424   0.00001   0.00000   0.00002   0.00002   1.83426
    R3        2.26744   0.00000   0.00000  -0.00030  -0.00030   2.26714
    R4        1.83430  -0.00002   0.00000  -0.00004  -0.00004   1.83426
    R5        1.83546  -0.00002   0.00000  -0.00004  -0.00004   1.83542
    R6        2.26676   0.00002   0.00000   0.00038   0.00038   2.26714
    A1        1.91882  -0.00002   0.00000  -0.00011  -0.00011   1.91871
    A2        2.05104  -0.00001   0.00000  -0.00014  -0.00014   2.05090
    A3        2.09055   0.00003   0.00000   0.00042   0.00042   2.09097
    A4        1.91864   0.00001   0.00000   0.00007   0.00007   1.91871
    A5        2.09120  -0.00002   0.00000  -0.00023  -0.00023   2.09097
    A6        2.05085   0.00000   0.00000   0.00005   0.00005   2.05090
    A7        3.23487   0.00000   0.00000   0.00006   0.00006   3.23493
    A8        3.05234   0.00000   0.00000   0.00056   0.00056   3.05290
    D1       -1.76083   0.00000   0.00000  -0.00182  -0.00182  -1.76265
    D2        2.08460   0.00000   0.00000  -0.00160  -0.00160   2.08300
    D3        0.67652   0.00000   0.00000  -0.00163  -0.00163   0.67489
    D4       -1.76124   0.00000   0.00000  -0.00141  -0.00141  -1.76265
         Item               Value     Threshold  Converged?
 Maximum Force            0.000030     0.000450     YES
 RMS     Force            0.000013     0.000300     YES
 Maximum Displacement     0.001279     0.001800     YES
 RMS     Displacement     0.000591     0.001200     YES
 Predicted change in Energy=-2.055284D-08
 Optimization completed.
    -- Stationary point found.
                           ----------------------------
                           !   Optimized Parameters   !
                           ! (Angstroms and Degrees)  !
 --------------------------                            --------------------------
 ! Name  Definition              Value          Derivative Info.                !
 --------------------------------------------------------------------------------
 ! R1    R(1,2)                  0.9712         -DE/DX =    0.0                 !
 ! R2    R(1,3)                  0.9706         -DE/DX =    0.0                 !
 ! R3    R(1,7)                  1.1999         -DE/DX =    0.0                 !
 ! R4    R(4,5)                  0.9707         -DE/DX =    0.0                 !
 ! R5    R(4,6)                  0.9713         -DE/DX =    0.0                 !
 ! R6    R(4,7)                  1.1995         -DE/DX =    0.0                 !
 ! A1    A(2,1,3)              109.9406         -DE/DX =    0.0                 !
 ! A2    A(2,1,7)              117.5158         -DE/DX =    0.0                 !
 ! A3    A(3,1,7)              119.7798         -DE/DX =    0.0                 !
 ! A4    A(5,4,6)              109.9297         -DE/DX =    0.0                 !
 ! A5    A(5,4,7)              119.8168         -DE/DX =    0.0                 !
 ! A6    A(6,4,7)              117.5051         -DE/DX =    0.0                 !
 ! A7    L(1,7,4,5,-1)         185.3445         -DE/DX =    0.0                 !
 ! A8    L(1,7,4,5,-2)         174.8861         -DE/DX =    0.0                 !
 ! D1    D(2,1,4,5)           -100.8881         -DE/DX =    0.0                 !
 ! D2    D(2,1,4,6)            119.4385         -DE/DX =    0.0                 !
 ! D3    D(3,1,4,5)             38.7615         -DE/DX =    0.0                 !
 ! D4    D(3,1,4,6)           -100.9119         -DE/DX =    0.0                 !
 --------------------------------------------------------------------------------
 GradGradGradGradGradGradGradGradGradGradGradGradGradGradGradGradGradGrad

 1\1\GINC-STUDENT-LENOVO-S510\Freq\RB3LYP\6-31G(d,p)\H5O2(1+)\STUDENT\0
 2-Mar-2021\0\\#N Geom=AllCheck Guess=TCheck SCRF=Check GenChk RB3LYP/6
 -31G(d,p) Freq\\Title Card Required\\1,1\O,-1.1951612838,0.0227529655,
 -0.1695815952\H,-1.6717875021,-0.8032226726,0.0145513297\H,-1.71378946
 49,0.7810922541,0.143598198\O,1.1915879572,-0.0720235205,0.0231965251\
 H,1.6658940829,0.2610465991,0.8018464702\H,1.6936822534,0.1322609654,-
 0.7827569355\H,-0.0033411734,0.0177720348,-0.0308539922\\Version=EM64L
 -G09RevC.01\State=1-A\HF=-153.1918465\RMSD=3.188e-10\RMSF=2.130e-05\Ze
 roPoint=0.0577175\Thermal=0.0624304\Dipole=-0.0147813,0.3817855,0.3820
 467\DipoleDeriv=-1.134533,-0.0019821,-0.0649395,0.0032905,-0.4658757,0
 .0062696,-0.1014836,0.005575,-0.5244835,0.336776,0.0483748,0.0214055,0
 .0793223,0.4282674,0.0034178,0.0297274,0.0132582,0.4183173,0.339065,-0
 .0524504,0.0121993,-0.0874036,0.419123,-0.0038296,0.0162623,-0.0138274
 ,0.4161708,-1.1392945,0.0393083,-0.0259426,0.0758899,-0.5186939,0.0086
 868,-0.0313844,0.0076696,-0.4669324,0.3347782,-0.0153089,0.0495522,-0.
 0189038,0.4149962,-0.0124363,0.084105,-0.000857,0.4248061,0.3444194,-0
 .0245542,-0.0523651,-0.0333018,0.4161245,0.0099056,-0.0828477,-0.00086
 12,0.4228977,1.9187889,0.0066124,0.0600902,-0.0188936,0.3060584,-0.012
 0139,0.085621,-0.0109572,0.309224\Polar=15.6157626,0.5779527,9.1774576
 ,-0.3309473,0.4569359,9.1406404\PG=C01 [X(H5O2)]\NImag=0\\0.50240241,0
 .00019292,0.75757259,-0.13270144,0.05098464,0.09469675,-0.17189827,-0.
 19776523,0.05254489,0.15840807,-0.16644733,-0.38071646,0.06201056,0.19
 148251,0.39745038,0.06264729,0.09007218,-0.02542412,-0.05312212,-0.071
 78324,0.02455764,-0.19204891,0.19693242,0.08973253,0.01490669,-0.01927
 391,-0.00772153,0.17888036,0.16357612,-0.33001506,-0.11017200,0.022427
 25,-0.02167299,-0.01449437,-0.19153675,0.34679999,0.09581665,-0.137904
 05,-0.05755758,-0.00488346,0.01015374,0.00178116,-0.08970465,0.1229931
 5,0.05626558,-0.08957707,0.00003601,-0.00308431,-0.00554695,0.00747737
 ,-0.00147818,-0.00512086,-0.00719574,-0.00303129,0.49189230,-0.0011787
 9,0.01398949,0.00030547,0.00228665,-0.00170952,0.00069754,-0.00237370,
 -0.00099964,-0.00049807,0.14662089,0.10598032,-0.00437605,0.00158816,0
 .01386198,-0.00135835,0.00024247,-0.00021226,-0.00217797,-0.00073448,-
 0.00023794,-0.01286227,0.05619459,0.75687312,-0.00571274,0.00197874,0.
 00220002,-0.00069867,-0.00004390,-0.00017908,-0.00165987,-0.00044895,-
 0.00060630,-0.17033267,-0.08982092,-0.18473585,0.15653662,0.00283053,-
 0.00002860,-0.00028355,0.00011611,0.00018270,-0.00033395,0.00051022,0.
 00054040,0.00013340,-0.09474938,-0.06497656,-0.14940520,0.08876463,0.0
 6342232,0.00703489,-0.00035554,-0.00061354,0.00009531,-0.00049658,0.00
 042014,0.00033769,0.00051527,0.00053384,-0.15254048,-0.12012463,-0.344
 22467,0.17870279,0.13401177,0.36189212,-0.00524385,0.00113695,-0.00245
 822,-0.00027494,-0.00010093,-0.00002518,-0.00069602,-0.00012043,-0.000
 13790,-0.18190952,-0.06126632,0.20189210,0.01443908,0.00496515,-0.0203
 3752,0.16963194,0.00123475,-0.00010688,0.00065565,-0.00001772,0.000380
 47,0.00037831,0.00014681,0.00042287,-0.00033256,-0.07252282,-0.0305463
 7,0.09551067,0.00882642,0.00232700,-0.01501521,0.06178588,0.02927788,-
 0.00762000,-0.00001877,-0.00211657,0.00005158,0.00054902,0.00038356,0.
 00002986,-0.00049904,0.00017935,0.17175349,0.06664411,-0.36549576,0.02
 032547,0.01116190,-0.02175004,-0.19756201,-0.07743103,0.38141311,-0.03
 792157,-0.00251181,-0.00623347,0.00510407,-0.01309382,-0.00012119,0.00
 573860,0.01329849,0.00254695,-0.03940524,0.00573217,0.00361839,0.00742
 824,-0.00243725,-0.01329269,0.00405331,0.00054669,0.01302161,0.0550025
 9,-0.00020820,-0.06069508,-0.00350079,-0.01852957,0.00608543,-0.004536
 48,0.01559491,0.00492443,0.00545438,0.02033367,-0.02173772,-0.00339621
 ,-0.00925603,-0.00146727,0.00146491,-0.00640031,-0.00175495,-0.0004061
 9,-0.00153447,0.07464516,-0.02080134,-0.00436662,-0.02284691,0.0066721
 4,-0.00067598,-0.00150613,0.00950407,0.00239147,-0.00096441,0.00124305
 ,-0.00321902,-0.06056446,-0.01570705,0.00471562,0.00374214,0.01862874,
 -0.00376584,0.00738635,0.00046041,0.00492037,0.07475343\\-0.00004106,-
 0.00002950,0.00000389,0.00001077,0.00000755,-0.00000616,0.00002761,0.0
 0000623,-0.00000274,-0.00005925,-0.00001469,0.00001599,0.00002072,0.00
 000402,0.00000620,0.00001410,0.00000875,-0.00001012,0.00002710,0.00001
 764,-0.00000707\\\@


 IT IS WELL TO REMEMBER THAT MAN IS A PART OF NATURE AND THAT HIS WORKS,
 WHATEVER THEY MAY BE, ARE NO MORE "UNNATURAL" THAN 
 THE FLIGHT OF AN EAGLE OR THE PASSAGE OF A TORNADO.

                                    -- CHARLES MCCARRY IN "THE GREAT SOUTHWEST"
 Job cpu time:  0 days  0 hours  0 minutes 13.8 seconds.
 File lengths (MBytes):  RWF=      6 Int=      0 D2E=      0 Chk=      1 Scr=      1
 Normal termination of Gaussian 09 at Tue Mar  2 15:43:40 2021.
