 Entering Gaussian System, Link 0=g09
 Input=h2o.com
 Output=h2o.log
 Initial command:
 /home/student/g09/l1.exe /home/student/Aniruddha_1811022/Gau-326.inp -scrdir=/home/student/Aniruddha_1811022/
 Entering Link 1 = /home/student/g09/l1.exe PID=       330.
  
 Copyright (c) 1988,1990,1992,1993,1995,1998,2003,2009,2011,
            Gaussian, Inc.  All Rights Reserved.
  
 This is part of the Gaussian(R) 09 program.  It is based on
 the Gaussian(R) 03 system (copyright 2003, Gaussian, Inc.),
 the Gaussian(R) 98 system (copyright 1998, Gaussian, Inc.),
 the Gaussian(R) 94 system (copyright 1995, Gaussian, Inc.),
 the Gaussian 92(TM) system (copyright 1992, Gaussian, Inc.),
 the Gaussian 90(TM) system (copyright 1990, Gaussian, Inc.),
 the Gaussian 88(TM) system (copyright 1988, Gaussian, Inc.),
 the Gaussian 86(TM) system (copyright 1986, Carnegie Mellon
 University), and the Gaussian 82(TM) system (copyright 1983,
 Carnegie Mellon University). Gaussian is a federally registered
 trademark of Gaussian, Inc.
  
 This software contains proprietary and confidential information,
 including trade secrets, belonging to Gaussian, Inc.
  
 This software is provided under written license and may be
 used, copied, transmitted, or stored only in accord with that
 written license.
  
 The following legend is applicable only to US Government
 contracts under FAR:
  
                    RESTRICTED RIGHTS LEGEND
  
 Use, reproduction and disclosure by the US Government is
 subject to restrictions as set forth in subparagraphs (a)
 and (c) of the Commercial Computer Software - Restricted
 Rights clause in FAR 52.227-19.
  
 Gaussian, Inc.
 340 Quinnipiac St., Bldg. 40, Wallingford CT 06492
  
  
 ---------------------------------------------------------------
 Warning -- This program may not be used in any manner that
 competes with the business of Gaussian, Inc. or will provide
 assistance to any competitor of Gaussian, Inc.  The licensee
 of this program is prohibited from giving any competitor of
 Gaussian, Inc. access to this program.  By using this program,
 the user acknowledges that Gaussian, Inc. is engaged in the
 business of creating and licensing software in the field of
 computational chemistry and represents and warrants to the
 licensee that it is not a competitor of Gaussian, Inc. and that
 it will not use this program in any manner prohibited above.
 ---------------------------------------------------------------
  

 Cite this work as:
 Gaussian 09, Revision C.01,
 M. J. Frisch, G. W. Trucks, H. B. Schlegel, G. E. Scuseria, 
 M. A. Robb, J. R. Cheeseman, G. Scalmani, V. Barone, B. Mennucci, 
 G. A. Petersson, H. Nakatsuji, M. Caricato, X. Li, H. P. Hratchian, 
 A. F. Izmaylov, J. Bloino, G. Zheng, J. L. Sonnenberg, M. Hada, 
 M. Ehara, K. Toyota, R. Fukuda, J. Hasegawa, M. Ishida, T. Nakajima, 
 Y. Honda, O. Kitao, H. Nakai, T. Vreven, J. A. Montgomery, Jr., 
 J. E. Peralta, F. Ogliaro, M. Bearpark, J. J. Heyd, E. Brothers, 
 K. N. Kudin, V. N. Staroverov, T. Keith, R. Kobayashi, J. Normand, 
 K. Raghavachari, A. Rendell, J. C. Burant, S. S. Iyengar, J. Tomasi, 
 M. Cossi, N. Rega, J. M. Millam, M. Klene, J. E. Knox, J. B. Cross, 
 V. Bakken, C. Adamo, J. Jaramillo, R. Gomperts, R. E. Stratmann, 
 O. Yazyev, A. J. Austin, R. Cammi, C. Pomelli, J. W. Ochterski, 
 R. L. Martin, K. Morokuma, V. G. Zakrzewski, G. A. Voth, 
 P. Salvador, J. J. Dannenberg, S. Dapprich, A. D. Daniels, 
 O. Farkas, J. B. Foresman, J. V. Ortiz, J. Cioslowski, 
 and D. J. Fox, Gaussian, Inc., Wallingford CT, 2010.
 
 ******************************************
 Gaussian 09:  EM64L-G09RevC.01 23-Sep-2011
                 1-Mar-2021 
 ******************************************
 %chk=h2o.chk
 ---------------------------------------
 # hf/6-31g** geom=connectivity opt freq
 ---------------------------------------
 1/18=20,19=15,38=1,57=2/1,3;
 2/9=110,12=2,17=6,18=5,40=1/2;
 3/5=1,6=6,7=101,11=9,16=1,25=1,30=1,71=1/1,2,3;
 4//1;
 5/5=2,38=5/2;
 6/7=2,8=2,9=2,10=2,28=1/1;
 7//1,2,3,16;
 1/18=20,19=15/3(2);
 2/9=110/2;
 99//99;
 2/9=110/2;
 3/5=1,6=6,7=101,11=9,16=1,25=1,30=1,71=1/1,2,3;
 4/5=5,16=3/1;
 5/5=2,38=5/2;
 7//1,2,3,16;
 1/18=20,19=15/3(-5);
 2/9=110/2;
 6/7=2,8=2,9=2,10=2,19=2,28=1/1;
 99/9=1/99;
 -------------------
 Title Card Required
 -------------------
 Charge =  0 Multiplicity = 1
 Symbolic Z-Matrix:
 O                     0.66421  -0.64576   0. 
 H                     1.62421  -0.64576   0. 
 H                     0.34375   0.25918   0. 
 

 GradGradGradGradGradGradGradGradGradGradGradGradGradGradGradGradGradGrad
 Berny optimization.
 Initialization pass.
                           ----------------------------
                           !    Initial Parameters    !
                           ! (Angstroms and Degrees)  !
 --------------------------                            --------------------------
 ! Name  Definition              Value          Derivative Info.                !
 --------------------------------------------------------------------------------
 ! R1    R(1,2)                  0.96           estimate D2E/DX2                !
 ! R2    R(1,3)                  0.96           estimate D2E/DX2                !
 ! A1    A(2,1,3)              109.5            estimate D2E/DX2                !
 --------------------------------------------------------------------------------
 Trust Radius=3.00D-01 FncErr=1.00D-07 GrdErr=1.00D-07
 Number of steps in this run=     20 maximum allowed number of steps=    100.
 GradGradGradGradGradGradGradGradGradGradGradGradGradGradGradGradGradGrad

                          Input orientation:                          
 ---------------------------------------------------------------------
 Center     Atomic      Atomic             Coordinates (Angstroms)
 Number     Number       Type             X           Y           Z
 ---------------------------------------------------------------------
      1          8           0        0.664207   -0.645756    0.000000
      2          1           0        1.624207   -0.645756    0.000000
      3          1           0        0.343752    0.259179    0.000000
 ---------------------------------------------------------------------
                    Distance matrix (angstroms):
                    1          2          3
     1  O    0.000000
     2  H    0.960000   0.000000
     3  H    0.960000   1.567952   0.000000
 Stoichiometry    H2O
 Framework group  C2V[C2(O),SGV(H2)]
 Deg. of freedom     2
 Full point group                 C2V     NOp   4
 Largest Abelian subgroup         C2V     NOp   4
 Largest concise Abelian subgroup C2      NOp   2
                         Standard orientation:                         
 ---------------------------------------------------------------------
 Center     Atomic      Atomic             Coordinates (Angstroms)
 Number     Number       Type             X           Y           Z
 ---------------------------------------------------------------------
      1          8           0        0.000000    0.000000    0.110812
      2          1           0        0.000000    0.783976   -0.443248
      3          1           0        0.000000   -0.783976   -0.443248
 ---------------------------------------------------------------------
 Rotational constants (GHZ):    919.6759611    407.9403275    282.5913752
 Standard basis: 6-31G(d,p) (6D, 7F)
 There are    12 symmetry adapted basis functions of A1  symmetry.
 There are     2 symmetry adapted basis functions of A2  symmetry.
 There are     4 symmetry adapted basis functions of B1  symmetry.
 There are     7 symmetry adapted basis functions of B2  symmetry.
 Integral buffers will be    131072 words long.
 Raffenetti 1 integral format.
 Two-electron integral symmetry is turned on.
    25 basis functions,    42 primitive gaussians,    25 cartesian basis functions
     5 alpha electrons        5 beta electrons
       nuclear repulsion energy         9.1571159900 Hartrees.
 NAtoms=    3 NActive=    3 NUniq=    2 SFac= 2.25D+00 NAtFMM=   60 NAOKFM=F Big=F
 One-electron integrals computed using PRISM.
 NBasis=    25 RedAO= T  NBF=    12     2     4     7
 NBsUse=    25 1.00D-06 NBFU=    12     2     4     7
 Harris functional with IExCor=  205 diagonalized for initial guess.
 ExpMin= 1.61D-01 ExpMax= 5.48D+03 ExpMxC= 8.25D+02 IAcc=1 IRadAn=         1 AccDes= 0.00D+00
 HarFok:  IExCor=  205 AccDes= 0.00D+00 IRadAn=         1 IDoV= 1
 ScaDFX=  1.000000  1.000000  1.000000  1.000000
 FoFCou: FMM=F IPFlag=           0 FMFlag=      100000 FMFlg1=           0
         NFxFlg=           0 DoJE=T BraDBF=F KetDBF=T FulRan=T
         Omega=  0.000000  0.000000  1.000000  0.000000  0.000000 ICntrl=     500 IOpCl=  0
         NMat0=    1 NMatS0=    1 NMatT0=    0 NMatD0=    1 NMtDS0=    0 NMtDT0=    0
         I1Cent=           4 NGrid=           0.
 Petite list used in FoFCou.
 Initial guess orbital symmetries:
       Occupied  (A1) (A1) (B2) (A1) (B1)
       Virtual   (A1) (B2) (A1) (B2) (B1) (A1) (B2) (A1) (A2) (A1)
                 (B1) (A1) (B2) (B2) (B1) (A2) (A1) (A1) (B2) (A1)
 The electronic state of the initial guess is 1-A1.
 Requested convergence on RMS density matrix=1.00D-08 within 128 cycles.
 Requested convergence on MAX density matrix=1.00D-06.
 Requested convergence on             energy=1.00D-06.
 No special actions if energy rises.
 Keep R1 ints in memory in canonical form, NReq=893406.
 SCF Done:  E(RHF) =  -76.0225479056     A.U. after   10 cycles
             Convg  =    0.4076D-08             -V/T =  2.0031

 **********************************************************************

            Population analysis using the SCF density.

 **********************************************************************

 Orbital symmetries:
       Occupied  (A1) (A1) (B2) (A1) (B1)
       Virtual   (A1) (B2) (B2) (A1) (A1) (B1) (B2) (A1) (A2) (A1)
                 (B1) (B2) (A1) (B2) (B1) (A2) (A1) (A1) (B2) (A1)
 The electronic state is 1-A1.
 Alpha  occ. eigenvalues --  -20.55811  -1.33460  -0.71076  -0.55805  -0.49483
 Alpha virt. eigenvalues --    0.21195   0.30441   1.02364   1.06524   1.13408
 Alpha virt. eigenvalues --    1.17044   1.29600   1.39722   1.79302   1.85481
 Alpha virt. eigenvalues --    1.94239   2.53391   2.56215   2.82042   2.95076
 Alpha virt. eigenvalues --    3.00864   3.36675   3.71452   3.90303   4.13505
          Condensed to atoms (all electrons):
              1          2          3
     1  O    8.068440   0.308047   0.308047
     2  H    0.308047   0.372407  -0.022720
     3  H    0.308047  -0.022720   0.372407
 Mulliken atomic charges:
              1
     1  O   -0.684534
     2  H    0.342267
     3  H    0.342267
 Sum of Mulliken atomic charges =   0.00000
 Mulliken charges with hydrogens summed into heavy atoms:
              1
     1  O    0.000000
 Sum of Mulliken charges with hydrogens summed into heavy atoms =   0.00000
 Electronic spatial extent (au):  <R**2>=             18.8881
 Charge=              0.0000 electrons
 Dipole moment (field-independent basis, Debye):
    X=              0.0000    Y=              0.0000    Z=             -2.0990  Tot=              2.0990
 Quadrupole moment (field-independent basis, Debye-Ang):
   XX=             -7.1728   YY=             -3.8856   ZZ=             -6.0833
   XY=              0.0000   XZ=              0.0000   YZ=              0.0000
 Traceless Quadrupole moment (field-independent basis, Debye-Ang):
   XX=             -1.4589   YY=              1.8283   ZZ=             -0.3694
   XY=              0.0000   XZ=              0.0000   YZ=              0.0000
 Octapole moment (field-independent basis, Debye-Ang**2):
  XXX=              0.0000  YYY=              0.0000  ZZZ=             -1.2746  XYY=              0.0000
  XXY=              0.0000  XXZ=             -0.3344  XZZ=              0.0000  YZZ=              0.0000
  YYZ=             -1.4031  XYZ=              0.0000
 Hexadecapole moment (field-independent basis, Debye-Ang**3):
 XXXX=             -5.1383 YYYY=             -5.3747 ZZZZ=             -6.0148 XXXY=              0.0000
 XXXZ=              0.0000 YYYX=              0.0000 YYYZ=              0.0000 ZZZX=              0.0000
 ZZZY=              0.0000 XXYY=             -2.0838 XXZZ=             -1.9035 YYZZ=             -1.5994
 XXYZ=              0.0000 YYXZ=              0.0000 ZZXY=              0.0000
 N-N= 9.157115989974D+00 E-N=-1.988374211269D+02  KE= 7.579078841968D+01
 Symmetry A1   KE= 6.776501147929D+01
 Symmetry A2   KE= 4.129001543283D-35
 Symmetry B1   KE= 4.539056666399D+00
 Symmetry B2   KE= 3.486720273984D+00
 Calling FoFJK, ICntrl=      2127 FMM=F ISym2X=1 I1Cent= 0 IOpClX= 0 NMat=1 NMatS=1 NMatT=0.
 ***** Axes restored to original set *****
 -------------------------------------------------------------------
 Center     Atomic                   Forces (Hartrees/Bohr)
 Number     Number              X              Y              Z
 -------------------------------------------------------------------
      1        8           0.007344011    0.010391535    0.000000000
      2        1          -0.020748971    0.006873038    0.000000000
      3        1           0.013404960   -0.017264573    0.000000000
 -------------------------------------------------------------------
 Cartesian Forces:  Max     0.020748971 RMS     0.011142688

 GradGradGradGradGradGradGradGradGradGradGradGradGradGradGradGradGradGrad
 Berny optimization.
 Internal  Forces:  Max     0.020748971 RMS     0.018407484
 Search for a local minimum.
 Step number   1 out of a maximum of   20
 All quantities printed in internal units (Hartrees-Bohrs-Radians)
 Mixed Optimization -- RFO/linear search
 Second derivative matrix not updated -- first step.
 The second derivative matrix:
                          R1        R2        A1
           R1           0.55473
           R2           0.00000   0.55473
           A1           0.00000   0.00000   0.16000
 ITU=  0
     Eigenvalues ---    0.16000   0.55473   0.55473
 RFO step:  Lambda=-2.50190688D-03 EMin= 1.60000000D-01
 Linear search not attempted -- first point.
 Iteration  1 RMS(Cart)=  0.05981389 RMS(Int)=  0.00142173
 Iteration  2 RMS(Cart)=  0.00093471 RMS(Int)=  0.00000071
 Iteration  3 RMS(Cart)=  0.00000079 RMS(Int)=  0.00000000
 ClnCor:  largest displacement from symmetrization is 8.01D-16 for atom     1.
 Variable       Old X    -DE/DX   Delta X   Delta X   Delta X     New X
                                 (Linear)    (Quad)   (Total)
    R1        1.81414  -0.02075   0.00000  -0.03724  -0.03724   1.77690
    R2        1.81414  -0.02075   0.00000  -0.03724  -0.03724   1.77690
    A1        1.91114  -0.01247   0.00000  -0.07673  -0.07673   1.83441
         Item               Value     Threshold  Converged?
 Maximum Force            0.020749     0.000450     NO 
 RMS     Force            0.018407     0.000300     NO 
 Maximum Displacement     0.064254     0.001800     NO 
 RMS     Displacement     0.059923     0.001200     NO 
 Predicted change in Energy=-1.261786D-03
 GradGradGradGradGradGradGradGradGradGradGradGradGradGradGradGradGradGrad

                          Input orientation:                          
 ---------------------------------------------------------------------
 Center     Atomic      Atomic             Coordinates (Angstroms)
 Number     Number       Type             X           Y           Z
 ---------------------------------------------------------------------
      1          8           0        0.657404   -0.655382    0.000000
      2          1           0        1.597008   -0.619317    0.000000
      3          1           0        0.377754    0.242366    0.000000
 ---------------------------------------------------------------------
                    Distance matrix (angstroms):
                    1          2          3
     1  O    0.000000
     2  H    0.940296   0.000000
     3  H    0.940296   1.493009   0.000000
 Stoichiometry    H2O
 Framework group  C2V[C2(O),SGV(H2)]
 Deg. of freedom     2
 Full point group                 C2V     NOp   4
 Largest Abelian subgroup         C2V     NOp   4
 Largest concise Abelian subgroup C2      NOp   2
                         Standard orientation:                         
 ---------------------------------------------------------------------
 Center     Atomic      Atomic             Coordinates (Angstroms)
 Number     Number       Type             X           Y           Z
 ---------------------------------------------------------------------
      1          8           0        0.000000    0.000000    0.114348
      2          1           0        0.000000    0.746505   -0.457392
      3          1           0        0.000000   -0.746505   -0.457392
 ---------------------------------------------------------------------
 Rotational constants (GHZ):    863.6742466    449.9216742    295.8183387
 Standard basis: 6-31G(d,p) (6D, 7F)
 There are    12 symmetry adapted basis functions of A1  symmetry.
 There are     2 symmetry adapted basis functions of A2  symmetry.
 There are     4 symmetry adapted basis functions of B1  symmetry.
 There are     7 symmetry adapted basis functions of B2  symmetry.
 Integral buffers will be    131072 words long.
 Raffenetti 1 integral format.
 Two-electron integral symmetry is turned on.
    25 basis functions,    42 primitive gaussians,    25 cartesian basis functions
     5 alpha electrons        5 beta electrons
       nuclear repulsion energy         9.3588746139 Hartrees.
 NAtoms=    3 NActive=    3 NUniq=    2 SFac= 2.25D+00 NAtFMM=   60 NAOKFM=F Big=F
 One-electron integrals computed using PRISM.
 NBasis=    25 RedAO= T  NBF=    12     2     4     7
 NBsUse=    25 1.00D-06 NBFU=    12     2     4     7
 Initial guess read from the read-write file.
 B after Tr=     0.000000    0.000000    0.000000
         Rot=    1.000000    0.000000    0.000000    0.000000 Ang=   0.00 deg.
 Initial guess orbital symmetries:
       Occupied  (A1) (A1) (B2) (A1) (B1)
       Virtual   (A1) (B2) (B2) (A1) (A1) (B1) (B2) (A1) (A2) (A1)
                 (B1) (B2) (A1) (B2) (B1) (A2) (A1) (A1) (B2) (A1)
 Harris functional with IExCor=  205 diagonalized for initial guess.
 ExpMin= 1.61D-01 ExpMax= 5.48D+03 ExpMxC= 8.25D+02 IAcc=1 IRadAn=         1 AccDes= 0.00D+00
 HarFok:  IExCor=  205 AccDes= 0.00D+00 IRadAn=         1 IDoV= 1
 ScaDFX=  1.000000  1.000000  1.000000  1.000000
 FoFCou: FMM=F IPFlag=           0 FMFlag=      100000 FMFlg1=           0
         NFxFlg=           0 DoJE=T BraDBF=F KetDBF=T FulRan=T
         Omega=  0.000000  0.000000  1.000000  0.000000  0.000000 ICntrl=     500 IOpCl=  0
         NMat0=    1 NMatS0=    1 NMatT0=    0 NMatD0=    1 NMtDS0=    0 NMtDT0=    0
         I1Cent=           4 NGrid=           0.
 Petite list used in FoFCou.
 Requested convergence on RMS density matrix=1.00D-08 within 128 cycles.
 Requested convergence on MAX density matrix=1.00D-06.
 Requested convergence on             energy=1.00D-06.
 No special actions if energy rises.
 Keep R1 ints in memory in canonical form, NReq=893406.
 SCF Done:  E(RHF) =  -76.0235724587     A.U. after    9 cycles
             Convg  =    0.2432D-08             -V/T =  2.0019
 Calling FoFJK, ICntrl=      2127 FMM=F ISym2X=1 I1Cent= 0 IOpClX= 0 NMat=1 NMatS=1 NMatT=0.
 ***** Axes restored to original set *****
 -------------------------------------------------------------------
 Center     Atomic                   Forces (Hartrees/Bohr)
 Number     Number              X              Y              Z
 -------------------------------------------------------------------
      1        8          -0.001088383   -0.001540027    0.000000000
      2        1           0.003847439   -0.001564491    0.000000000
      3        1          -0.002759056    0.003104518    0.000000000
 -------------------------------------------------------------------
 Cartesian Forces:  Max     0.003847439 RMS     0.002056348

 GradGradGradGradGradGradGradGradGradGradGradGradGradGradGradGradGradGrad
 Berny optimization.
 Using GEDIIS/GDIIS optimizer.
 Internal  Forces:  Max     0.003784602 RMS     0.003553812
 Search for a local minimum.
 Step number   2 out of a maximum of   20
 All quantities printed in internal units (Hartrees-Bohrs-Radians)
 Mixed Optimization -- RFO/linear search
 Update second derivatives using D2CorX and points    1    2
 DE= -1.02D-03 DEPred=-1.26D-03 R= 8.12D-01
 SS=  1.41D+00  RLast= 9.31D-02 DXNew= 5.0454D-01 2.7918D-01
 Trust test= 8.12D-01 RLast= 9.31D-02 DXMaxT set to 3.00D-01
 The second derivative matrix:
                          R1        R2        A1
           R1           0.58221
           R2           0.02748   0.58221
           A1           0.02387   0.02387   0.17895
 ITU=  1  0
 Use linear search instead of GDIIS.
     Eigenvalues ---    0.17632   0.55473   0.61232
 RFO step:  Lambda=-8.89327453D-07 EMin= 1.76324879D-01
 Quartic linear search produced a step of -0.16225.
 Iteration  1 RMS(Cart)=  0.01033553 RMS(Int)=  0.00004470
 Iteration  2 RMS(Cart)=  0.00002933 RMS(Int)=  0.00000000
 Iteration  3 RMS(Cart)=  0.00000000 RMS(Int)=  0.00000000
 ClnCor:  largest displacement from symmetrization is 4.48D-15 for atom     3.
 Variable       Old X    -DE/DX   Delta X   Delta X   Delta X     New X
                                 (Linear)    (Quad)   (Total)
    R1        1.77690   0.00378   0.00604  -0.00057   0.00547   1.78237
    R2        1.77690   0.00378   0.00604  -0.00057   0.00547   1.78237
    A1        1.83441   0.00304   0.01245   0.00181   0.01426   1.84867
         Item               Value     Threshold  Converged?
 Maximum Force            0.003785     0.000450     NO 
 RMS     Force            0.003554     0.000300     NO 
 Maximum Displacement     0.011134     0.001800     NO 
 RMS     Displacement     0.010334     0.001200     NO 
 Predicted change in Energy=-4.459452D-05
 GradGradGradGradGradGradGradGradGradGradGradGradGradGradGradGradGradGrad

                          Input orientation:                          
 ---------------------------------------------------------------------
 Center     Atomic      Atomic             Coordinates (Angstroms)
 Number     Number       Type             X           Y           Z
 ---------------------------------------------------------------------
      1          8           0        0.658787   -0.653425    0.000000
      2          1           0        1.601517   -0.623971    0.000000
      3          1           0        0.371862    0.245063    0.000000
 ---------------------------------------------------------------------
                    Distance matrix (angstroms):
                    1          2          3
     1  O    0.000000
     2  H    0.943190   0.000000
     3  H    0.943190   1.505746   0.000000
 Stoichiometry    H2O
 Framework group  C2V[C2(O),SGV(H2)]
 Deg. of freedom     2
 Full point group                 C2V     NOp   4
 Largest Abelian subgroup         C2V     NOp   4
 Largest concise Abelian subgroup C2      NOp   2
                         Standard orientation:                         
 ---------------------------------------------------------------------
 Center     Atomic      Atomic             Coordinates (Angstroms)
 Number     Number       Type             X           Y           Z
 ---------------------------------------------------------------------
      1          8           0        0.000000    0.000000    0.113629
      2          1           0        0.000000    0.752873   -0.454516
      3          1           0        0.000000   -0.752873   -0.454516
 ---------------------------------------------------------------------
 Rotational constants (GHZ):    874.6383219    442.3425743    293.7702194
 Standard basis: 6-31G(d,p) (6D, 7F)
 There are    12 symmetry adapted basis functions of A1  symmetry.
 There are     2 symmetry adapted basis functions of A2  symmetry.
 There are     4 symmetry adapted basis functions of B1  symmetry.
 There are     7 symmetry adapted basis functions of B2  symmetry.
 Integral buffers will be    131072 words long.
 Raffenetti 1 integral format.
 Two-electron integral symmetry is turned on.
    25 basis functions,    42 primitive gaussians,    25 cartesian basis functions
     5 alpha electrons        5 beta electrons
       nuclear repulsion energy         9.3282495166 Hartrees.
 NAtoms=    3 NActive=    3 NUniq=    2 SFac= 2.25D+00 NAtFMM=   60 NAOKFM=F Big=F
 One-electron integrals computed using PRISM.
 NBasis=    25 RedAO= T  NBF=    12     2     4     7
 NBsUse=    25 1.00D-06 NBFU=    12     2     4     7
 Initial guess read from the read-write file.
 B after Tr=     0.000000    0.000000    0.000000
         Rot=    1.000000    0.000000    0.000000    0.000000 Ang=   0.00 deg.
 Initial guess orbital symmetries:
       Occupied  (A1) (A1) (B2) (A1) (B1)
       Virtual   (A1) (B2) (B2) (A1) (A1) (B1) (B2) (A1) (A2) (A1)
                 (B1) (B2) (A1) (B2) (A2) (B1) (A1) (A1) (B2) (A1)
 Requested convergence on RMS density matrix=1.00D-08 within 128 cycles.
 Requested convergence on MAX density matrix=1.00D-06.
 Requested convergence on             energy=1.00D-06.
 No special actions if energy rises.
 Keep R1 ints in memory in canonical form, NReq=893406.
 SCF Done:  E(RHF) =  -76.0236149302     A.U. after    8 cycles
             Convg  =    0.2009D-08             -V/T =  2.0021
 Calling FoFJK, ICntrl=      2127 FMM=F ISym2X=1 I1Cent= 0 IOpClX= 0 NMat=1 NMatS=1 NMatT=0.
 ***** Axes restored to original set *****
 -------------------------------------------------------------------
 Center     Atomic                   Forces (Hartrees/Bohr)
 Number     Number              X              Y              Z
 -------------------------------------------------------------------
      1        8           0.000161431    0.000228420    0.000000000
      2        1          -0.000130323   -0.000079151    0.000000000
      3        1          -0.000031108   -0.000149269    0.000000000
 -------------------------------------------------------------------
 Cartesian Forces:  Max     0.000228420 RMS     0.000117725

 GradGradGradGradGradGradGradGradGradGradGradGradGradGradGradGradGradGrad
 Berny optimization.
 Using GEDIIS/GDIIS optimizer.
 Internal  Forces:  Max     0.000133753 RMS     0.000133073
 Search for a local minimum.
 Step number   3 out of a maximum of   20
 All quantities printed in internal units (Hartrees-Bohrs-Radians)
 Mixed Optimization -- En-DIIS/RFO-DIIS
 Update second derivatives using D2CorX and points    1    2    3
 DE= -4.25D-05 DEPred=-4.46D-05 R= 9.52D-01
 SS=  1.41D+00  RLast= 1.62D-02 DXNew= 5.0454D-01 4.8673D-02
 Trust test= 9.52D-01 RLast= 1.62D-02 DXMaxT set to 3.00D-01
 The second derivative matrix:
                          R1        R2        A1
           R1           0.59603
           R2           0.04130   0.59603
           A1           0.03029   0.03029   0.18055
 ITU=  1  1  0
 Use linear search instead of GDIIS.
     Eigenvalues ---    0.17656   0.55473   0.64131
 RFO step:  Lambda=-1.73658995D-07 EMin= 1.76564602D-01
 Quartic linear search produced a step of  0.00546.
 Iteration  1 RMS(Cart)=  0.00040067 RMS(Int)=  0.00000014
 Iteration  2 RMS(Cart)=  0.00000014 RMS(Int)=  0.00000000
 ClnCor:  largest displacement from symmetrization is 7.02D-16 for atom     1.
 Variable       Old X    -DE/DX   Delta X   Delta X   Delta X     New X
                                 (Linear)    (Quad)   (Total)
    R1        1.78237  -0.00013   0.00003  -0.00028  -0.00025   1.78212
    R2        1.78237  -0.00013   0.00003  -0.00028  -0.00025   1.78212
    A1        1.84867   0.00013   0.00008   0.00075   0.00083   1.84949
         Item               Value     Threshold  Converged?
 Maximum Force            0.000134     0.000450     YES
 RMS     Force            0.000133     0.000300     YES
 Maximum Displacement     0.000401     0.001800     YES
 RMS     Displacement     0.000401     0.001200     YES
 Predicted change in Energy=-8.793585D-08
 Optimization completed.
    -- Stationary point found.
                           ----------------------------
                           !   Optimized Parameters   !
                           ! (Angstroms and Degrees)  !
 --------------------------                            --------------------------
 ! Name  Definition              Value          Derivative Info.                !
 --------------------------------------------------------------------------------
 ! R1    R(1,2)                  0.9432         -DE/DX =   -0.0001              !
 ! R2    R(1,3)                  0.9432         -DE/DX =   -0.0001              !
 ! A1    A(2,1,3)              105.9209         -DE/DX =    0.0001              !
 --------------------------------------------------------------------------------
 GradGradGradGradGradGradGradGradGradGradGradGradGradGradGradGradGradGrad

                          Input orientation:                          
 ---------------------------------------------------------------------
 Center     Atomic      Atomic             Coordinates (Angstroms)
 Number     Number       Type             X           Y           Z
 ---------------------------------------------------------------------
      1          8           0        0.658787   -0.653425    0.000000
      2          1           0        1.601517   -0.623971    0.000000
      3          1           0        0.371862    0.245063    0.000000
 ---------------------------------------------------------------------
                    Distance matrix (angstroms):
                    1          2          3
     1  O    0.000000
     2  H    0.943190   0.000000
     3  H    0.943190   1.505746   0.000000
 Stoichiometry    H2O
 Framework group  C2V[C2(O),SGV(H2)]
 Deg. of freedom     2
 Full point group                 C2V     NOp   4
 Largest Abelian subgroup         C2V     NOp   4
 Largest concise Abelian subgroup C2      NOp   2
                         Standard orientation:                         
 ---------------------------------------------------------------------
 Center     Atomic      Atomic             Coordinates (Angstroms)
 Number     Number       Type             X           Y           Z
 ---------------------------------------------------------------------
      1          8           0        0.000000    0.000000    0.113629
      2          1           0        0.000000    0.752873   -0.454516
      3          1           0        0.000000   -0.752873   -0.454516
 ---------------------------------------------------------------------
 Rotational constants (GHZ):    874.6383219    442.3425743    293.7702194

 **********************************************************************

            Population analysis using the SCF density.

 **********************************************************************

 Orbital symmetries:
       Occupied  (A1) (A1) (B2) (A1) (B1)
       Virtual   (A1) (B2) (B2) (A1) (A1) (B1) (B2) (A1) (A2) (A1)
                 (B1) (B2) (A1) (B2) (B1) (A2) (A1) (A1) (B2) (A1)
 The electronic state is 1-A1.
 Alpha  occ. eigenvalues --  -20.55732  -1.34644  -0.71373  -0.56836  -0.49762
 Alpha virt. eigenvalues --    0.21530   0.30840   1.01664   1.09305   1.13459
 Alpha virt. eigenvalues --    1.16898   1.29551   1.41181   1.80262   1.82914
 Alpha virt. eigenvalues --    1.93130   2.58288   2.58871   2.84126   2.99772
 Alpha virt. eigenvalues --    3.00590   3.40628   3.74531   3.94516   4.12806
          Condensed to atoms (all electrons):
              1          2          3
     1  O    8.043070   0.313792   0.313792
     2  H    0.313792   0.375778  -0.024897
     3  H    0.313792  -0.024897   0.375778
 Mulliken atomic charges:
              1
     1  O   -0.670654
     2  H    0.335327
     3  H    0.335327
 Sum of Mulliken atomic charges =   0.00000
 Mulliken charges with hydrogens summed into heavy atoms:
              1
     1  O    0.000000
 Sum of Mulliken charges with hydrogens summed into heavy atoms =   0.00000
 Electronic spatial extent (au):  <R**2>=             18.6801
 Charge=              0.0000 electrons
 Dipole moment (field-independent basis, Debye):
    X=              0.0000    Y=              0.0000    Z=             -2.1485  Tot=              2.1485
 Quadrupole moment (field-independent basis, Debye-Ang):
   XX=             -7.1343   YY=             -4.0858   ZZ=             -5.9795
   XY=              0.0000   XZ=              0.0000   YZ=              0.0000
 Traceless Quadrupole moment (field-independent basis, Debye-Ang):
   XX=             -1.4011   YY=              1.6474   ZZ=             -0.2463
   XY=              0.0000   XZ=              0.0000   YZ=              0.0000
 Octapole moment (field-independent basis, Debye-Ang**2):
  XXX=              0.0000  YYY=              0.0000  ZZZ=             -1.3594  XYY=              0.0000
  XXY=              0.0000  XXZ=             -0.3556  XZZ=              0.0000  YZZ=              0.0000
  YYZ=             -1.3434  XYZ=              0.0000
 Hexadecapole moment (field-independent basis, Debye-Ang**3):
 XXXX=             -5.0926 YYYY=             -5.3981 ZZZZ=             -5.9606 XXXY=              0.0000
 XXXZ=              0.0000 YYYX=              0.0000 YYYZ=              0.0000 ZZZX=              0.0000
 ZZZY=              0.0000 XXYY=             -2.0271 XXZZ=             -1.8916 YYZZ=             -1.5678
 XXYZ=              0.0000 YYXZ=              0.0000 ZZXY=              0.0000
 N-N= 9.328249516631D+00 E-N=-1.992009329095D+02  KE= 7.586412695773D+01
 Symmetry A1   KE= 6.778100910196D+01
 Symmetry A2   KE= 4.111825921298D-35
 Symmetry B1   KE= 4.540899605026D+00
 Symmetry B2   KE= 3.542218250744D+00
 1\1\GINC-STUDENT-LENOVO-S510\FOpt\RHF\6-31G(d,p)\H2O1\STUDENT\01-Mar-2
 021\0\\# hf/6-31g** geom=connectivity opt freq\\Title Card Required\\0
 ,1\O,0.658786873,-0.6534252581,0.\H,1.6015165326,-0.6239710966,0.\H,0.
 3718619589,0.2450628344,0.\\Version=EM64L-G09RevC.01\State=1-A1\HF=-76
 .0236149\RMSD=2.009e-09\RMSF=1.177e-04\Dipole=0.4878591,0.6903046,0.\Q
 uadrupole=0.755832,0.2858672,-1.0416992,-0.6635698,0.,0.\PG=C02V [C2(O
 1),SGV(H2)]\\@


 "THE ACADEMIC HIERARCHY"


 THE PRESIDENT:
   LEAPS TALL BUILDINGS IN A SINGLE BOUND,
     IS MORE POWERFUL THAN A LOCOMOTIVE,
       IS FASTER THAN A SPEEDING BULLET,
         WALKS ON WATER,
           GIVES POLICY TO GOD.

 THE VICE PRESIDENT FOR ACADEMIC AFFAIRS:
   LEAPS SHORT BUILDINGS IN A SINGLE BOUND,
     IS MORE POWERFUL THAN A SWITCH ENGINE,
       IS JUST AS FAST AS A SPEEDING BULLET,
         WALKS ON WATER IF SEA IS CALM,
           TALKS WITH GOD.

 PROFESSOR:
   LEAPS SHORT BUILDINGS WITH A RUNNING START AND FAVORABLE WINDS,
     IS ALMOST AS POWERFUL AS A SWITCH ENGINE,
       CAN FIRE A SPEEDING BULLET,
         WALKS ON WATER IN AN INDOOR SWIMMING POOL,
          TALKS WITH GOD IF SPECIAL REQUEST IS APPROVED.

 ASSOCIATE PROFESSOR:
   BARELY CLEARS A QUONSET HUT,
     LOSES TUG OF WAR WITH LOCOMOTIVE,
       MISFIRES FREQUENTLY,
         SWIMS WELL,
           IS OCCASIONALLY ADDRESSED BY GOD.

 ASSISTANT PROFESSOR:
   MAKES HIGH MARKS ON WALLS WHEN TRYING TO LEAP TALL BUILDINGS,
     IS RUN OVER BY LOCOMOTIVES,
       CAN SOMETIMES HANDLE A GUN WITHOUT INFLICTING SELF INJURY,
         DOG PADDLES,
           TALKS TO ANIMALS.

 GRADUATE STUDENT:
   RUNS INTO BUILDINGS,
     RECOGNIZES LOCOMOTIVES TWO OUT OF THREE TIMES,
       IS NOT ISSUED AMMUNITION,
         CAN STAY AFLOAT WITH A LIFE JACKET,
           TALKS TO WALLS.

 UNDERGRADUATE AND WORK STUDY STUDENT:
   FALLS OVER DOORSTEP WHEN TRYING TO ENTER BUILDINGS,
     SAYS, "LOOK AT THE CHOO-CHOO,"
       WETS HIMSELF WITH A WATER PISTOL,
        PLAYS IN MUD PUDDLES,
          MUMBLES TO HIMSELF.

 DEPARTMENT SECRETARY:
   LIFTS TALL BUILDINGS AND WALKS UNDER THEM,
     KICKS LOCOMOTIVES OFF THE TRACKS,
       CATCHES SPEEDING BULLETS IN HER TEETH AND EATS THEM,
         FREEZES WATER WITH A SINGLE GLANCE,
           IS GOD.
 Job cpu time:  0 days  0 hours  0 minutes  2.0 seconds.
 File lengths (MBytes):  RWF=      5 Int=      0 D2E=      0 Chk=      1 Scr=      1
 Normal termination of Gaussian 09 at Mon Mar  1 11:08:37 2021.
 Link1:  Proceeding to internal job step number  2.
 -------------------------------------------------------------------
 #N Geom=AllCheck Guess=TCheck SCRF=Check GenChk RHF/6-31G(d,p) Freq
 -------------------------------------------------------------------
 1/10=4,29=7,30=1,38=1,40=1/1,3;
 2/12=2,40=1/2;
 3/5=1,6=6,7=101,11=1,14=-4,16=1,25=1,30=1,70=2,71=2,116=1/1,2,3;
 4/5=101/1;
 5/5=2,98=1/2;
 8/6=4,10=90,11=11/1;
 10/13=10,15=4/2;
 11/6=3,8=1,9=11,15=111,16=1/1,2,10;
 10/6=1/2;
 6/7=2,8=2,9=2,10=2,18=1,28=1/1;
 7/8=1,10=1,25=1/1,2,3,16;
 1/10=4,30=1/3;
 99//99;
 Structure from the checkpoint file:  h2o.chk
 -------------------
 Title Card Required
 -------------------
 Charge =  0 Multiplicity = 1
 Redundant internal coordinates found in file.
 O,0,0.658786873,-0.6534252581,0.
 H,0,1.6015165326,-0.6239710966,0.
 H,0,0.3718619589,0.2450628344,0.
 Recover connectivity data from disk.

 GradGradGradGradGradGradGradGradGradGradGradGradGradGradGradGradGradGrad
 Berny optimization.
 Initialization pass.
                           ----------------------------
                           !    Initial Parameters    !
                           ! (Angstroms and Degrees)  !
 --------------------------                            --------------------------
 ! Name  Definition              Value          Derivative Info.                !
 --------------------------------------------------------------------------------
 ! R1    R(1,2)                  0.9432         calculate D2E/DX2 analytically  !
 ! R2    R(1,3)                  0.9432         calculate D2E/DX2 analytically  !
 ! A1    A(2,1,3)              105.9209         calculate D2E/DX2 analytically  !
 --------------------------------------------------------------------------------
 Trust Radius=3.00D-01 FncErr=1.00D-07 GrdErr=1.00D-07
 Number of steps in this run=      2 maximum allowed number of steps=      2.
 GradGradGradGradGradGradGradGradGradGradGradGradGradGradGradGradGradGrad

                          Input orientation:                          
 ---------------------------------------------------------------------
 Center     Atomic      Atomic             Coordinates (Angstroms)
 Number     Number       Type             X           Y           Z
 ---------------------------------------------------------------------
      1          8           0        0.658787   -0.653425    0.000000
      2          1           0        1.601517   -0.623971    0.000000
      3          1           0        0.371862    0.245063    0.000000
 ---------------------------------------------------------------------
                    Distance matrix (angstroms):
                    1          2          3
     1  O    0.000000
     2  H    0.943190   0.000000
     3  H    0.943190   1.505746   0.000000
 Stoichiometry    H2O
 Framework group  C2V[C2(O),SGV(H2)]
 Deg. of freedom     2
 Full point group                 C2V     NOp   4
 Largest Abelian subgroup         C2V     NOp   4
 Largest concise Abelian subgroup C2      NOp   2
                         Standard orientation:                         
 ---------------------------------------------------------------------
 Center     Atomic      Atomic             Coordinates (Angstroms)
 Number     Number       Type             X           Y           Z
 ---------------------------------------------------------------------
      1          8           0        0.000000    0.000000    0.113629
      2          1           0        0.000000    0.752873   -0.454516
      3          1           0        0.000000   -0.752873   -0.454516
 ---------------------------------------------------------------------
 Rotational constants (GHZ):    874.6383219    442.3425743    293.7702194
 Standard basis: 6-31G(d,p) (6D, 7F)
 There are    12 symmetry adapted basis functions of A1  symmetry.
 There are     2 symmetry adapted basis functions of A2  symmetry.
 There are     4 symmetry adapted basis functions of B1  symmetry.
 There are     7 symmetry adapted basis functions of B2  symmetry.
 Integral buffers will be    131072 words long.
 Raffenetti 1 integral format.
 Two-electron integral symmetry is turned on.
    25 basis functions,    42 primitive gaussians,    25 cartesian basis functions
     5 alpha electrons        5 beta electrons
       nuclear repulsion energy         9.3282495166 Hartrees.
 NAtoms=    3 NActive=    3 NUniq=    2 SFac= 2.25D+00 NAtFMM=   60 NAOKFM=F Big=F
 One-electron integrals computed using PRISM.
 NBasis=    25 RedAO= T  NBF=    12     2     4     7
 NBsUse=    25 1.00D-06 NBFU=    12     2     4     7
 Initial guess read from the checkpoint file:  h2o.chk
 B after Tr=     0.000000    0.000000    0.000000
         Rot=    1.000000    0.000000    0.000000    0.000000 Ang=   0.00 deg.
 Initial guess orbital symmetries:
       Occupied  (A1) (A1) (B2) (A1) (B1)
       Virtual   (A1) (B2) (B2) (A1) (A1) (B1) (B2) (A1) (A2) (A1)
                 (B1) (B2) (A1) (B2) (B1) (A2) (A1) (A1) (B2) (A1)
 Requested convergence on RMS density matrix=1.00D-08 within 128 cycles.
 Requested convergence on MAX density matrix=1.00D-06.
 Requested convergence on             energy=1.00D-06.
 No special actions if energy rises.
 Keep R1 ints in memory in canonical form, NReq=893406.
 SCF Done:  E(RHF) =  -76.0236149302     A.U. after    1 cycles
             Convg  =    0.2136D-09             -V/T =  2.0021
 Range of M.O.s used for correlation:     1    25
 NBasis=    25 NAE=     5 NBE=     5 NFC=     0 NFV=     0
 NROrb=     25 NOA=     5 NOB=     5 NVA=    20 NVB=    20
          Differentiating once with respect to electric field.
                with respect to dipole field.
          Electric field/nuclear overlap derivatives assumed to be zero.
          Keep R1 ints in memory in canonical form, NReq=873498.
          There are     3 degrees of freedom in the 1st order CPHF.  IDoFFX=0.
      3 vectors produced by pass  0 Test12= 3.33D-15 3.33D-08 XBig12= 1.17D+00 7.37D-01.
 AX will form     3 AO Fock derivatives at one time.
      3 vectors produced by pass  1 Test12= 3.33D-15 3.33D-08 XBig12= 5.38D-02 1.19D-01.
      3 vectors produced by pass  2 Test12= 3.33D-15 3.33D-08 XBig12= 6.49D-03 3.53D-02.
      3 vectors produced by pass  3 Test12= 3.33D-15 3.33D-08 XBig12= 2.45D-04 8.07D-03.
      3 vectors produced by pass  4 Test12= 3.33D-15 3.33D-08 XBig12= 2.61D-06 8.42D-04.
      3 vectors produced by pass  5 Test12= 3.33D-15 3.33D-08 XBig12= 2.55D-08 7.02D-05.
      3 vectors produced by pass  6 Test12= 3.33D-15 3.33D-08 XBig12= 3.05D-10 8.54D-06.
      2 vectors produced by pass  7 Test12= 3.33D-15 3.33D-08 XBig12= 1.62D-12 5.49D-07.
      1 vectors produced by pass  8 Test12= 3.33D-15 3.33D-08 XBig12= 8.03D-15 3.78D-08.
 Inverted reduced A of dimension    24 with in-core refinement.
 End of Minotr Frequency-dependent properties file   721 does not exist.
 End of Minotr Frequency-dependent properties file   722 does not exist.
 Symmetrizing basis deriv contribution to polar:
 IMax=3 JMax=2 DiffMx= 0.00D+00
 G2DrvN: will do     4 centers at a time, making    1 passes doing MaxLOS=2.
 Calling FoFCou, ICntrl=  3107 FMM=F I1Cent=   0 AccDes= 0.00D+00.
 FoFDir/FoFCou used for L=0 through L=2.
 End of G2Drv Frequency-dependent properties file   721 does not exist.
 End of G2Drv Frequency-dependent properties file   722 does not exist.
          IDoAtm=111
          Differentiating once with respect to electric field.
                with respect to dipole field.
          Differentiating once with respect to nuclear coordinates.
          Keep R1 ints in memory in canonical form, NReq=873561.
          There are     9 degrees of freedom in the 1st order CPHF.  IDoFFX=4.
 Will reuse    3 saved solutions.
      6 vectors produced by pass  0 Test12= 1.11D-15 1.11D-08 XBig12= 3.00D-02 9.55D-02.
 AX will form     6 AO Fock derivatives at one time.
      6 vectors produced by pass  1 Test12= 1.11D-15 1.11D-08 XBig12= 2.62D-03 3.11D-02.
      6 vectors produced by pass  2 Test12= 1.11D-15 1.11D-08 XBig12= 2.12D-04 8.98D-03.
      6 vectors produced by pass  3 Test12= 1.11D-15 1.11D-08 XBig12= 3.21D-06 8.02D-04.
      6 vectors produced by pass  4 Test12= 1.11D-15 1.11D-08 XBig12= 3.20D-08 7.39D-05.
      6 vectors produced by pass  5 Test12= 1.11D-15 1.11D-08 XBig12= 1.17D-10 3.81D-06.
      3 vectors produced by pass  6 Test12= 1.11D-15 1.11D-08 XBig12= 3.06D-13 2.61D-07.
      1 vectors produced by pass  7 Test12= 1.11D-15 1.11D-08 XBig12= 1.51D-15 1.93D-08.
 Inverted reduced A of dimension    40 with in-core refinement.
 Isotropic polarizability for W=    0.000000        4.87 Bohr**3.
 End of Minotr Frequency-dependent properties file   721 does not exist.
 End of Minotr Frequency-dependent properties file   722 does not exist.

 **********************************************************************

            Population analysis using the SCF density.

 **********************************************************************

 Orbital symmetries:
       Occupied  (A1) (A1) (B2) (A1) (B1)
       Virtual   (A1) (B2) (B2) (A1) (A1) (B1) (B2) (A1) (A2) (A1)
                 (B1) (B2) (A1) (B2) (B1) (A2) (A1) (A1) (B2) (A1)
 The electronic state is 1-A1.
 Alpha  occ. eigenvalues --  -20.55732  -1.34644  -0.71373  -0.56836  -0.49762
 Alpha virt. eigenvalues --    0.21530   0.30840   1.01664   1.09305   1.13459
 Alpha virt. eigenvalues --    1.16898   1.29551   1.41181   1.80262   1.82914
 Alpha virt. eigenvalues --    1.93130   2.58288   2.58871   2.84126   2.99772
 Alpha virt. eigenvalues --    3.00590   3.40628   3.74531   3.94516   4.12806
          Condensed to atoms (all electrons):
              1          2          3
     1  O    8.043070   0.313792   0.313792
     2  H    0.313792   0.375778  -0.024897
     3  H    0.313792  -0.024897   0.375778
 Mulliken atomic charges:
              1
     1  O   -0.670654
     2  H    0.335327
     3  H    0.335327
 Sum of Mulliken atomic charges =   0.00000
 Mulliken charges with hydrogens summed into heavy atoms:
              1
     1  O    0.000000
 Sum of Mulliken charges with hydrogens summed into heavy atoms =   0.00000
 APT atomic charges:
              1
     1  O   -0.591278
     2  H    0.295639
     3  H    0.295639
 Sum of APT charges=   0.00000
 APT Atomic charges with hydrogens summed into heavy atoms:
              1
     1  O    0.000000
     2  H    0.000000
     3  H    0.000000
 Sum of APT charges=   0.00000
 Electronic spatial extent (au):  <R**2>=             18.6801
 Charge=              0.0000 electrons
 Dipole moment (field-independent basis, Debye):
    X=              0.0000    Y=              0.0000    Z=             -2.1485  Tot=              2.1485
 Quadrupole moment (field-independent basis, Debye-Ang):
   XX=             -7.1343   YY=             -4.0858   ZZ=             -5.9795
   XY=              0.0000   XZ=              0.0000   YZ=              0.0000
 Traceless Quadrupole moment (field-independent basis, Debye-Ang):
   XX=             -1.4011   YY=              1.6474   ZZ=             -0.2463
   XY=              0.0000   XZ=              0.0000   YZ=              0.0000
 Octapole moment (field-independent basis, Debye-Ang**2):
  XXX=              0.0000  YYY=              0.0000  ZZZ=             -1.3594  XYY=              0.0000
  XXY=              0.0000  XXZ=             -0.3556  XZZ=              0.0000  YZZ=              0.0000
  YYZ=             -1.3434  XYZ=              0.0000
 Hexadecapole moment (field-independent basis, Debye-Ang**3):
 XXXX=             -5.0926 YYYY=             -5.3981 ZZZZ=             -5.9606 XXXY=              0.0000
 XXXZ=              0.0000 YYYX=              0.0000 YYYZ=              0.0000 ZZZX=              0.0000
 ZZZY=              0.0000 XXYY=             -2.0271 XXZZ=             -1.8916 YYZZ=             -1.5678
 XXYZ=              0.0000 YYXZ=              0.0000 ZZXY=              0.0000
 N-N= 9.328249516631D+00 E-N=-1.992009329051D+02  KE= 7.586412695408D+01
 Symmetry A1   KE= 6.778100909756D+01
 Symmetry A2   KE= 2.629979746055D-35
 Symmetry B1   KE= 4.540899591085D+00
 Symmetry B2   KE= 3.542218265439D+00
  Exact polarizability:   2.931   0.000   6.769   0.000   0.000   4.906
 Approx polarizability:   2.521   0.000   5.492   0.000   0.000   4.151
 Calling FoFJK, ICntrl=    100127 FMM=F ISym2X=1 I1Cent= 0 IOpClX= 0 NMat=1 NMatS=1 NMatT=0.
 Full mass-weighted force constant matrix:
 Low frequencies ---    0.0023    0.0026    0.0029   33.4585   45.1117   62.0138
 Low frequencies --- 1770.4981 4145.8616 4262.4722
 Harmonic frequencies (cm**-1), IR intensities (KM/Mole), Raman scattering
 activities (A**4/AMU), depolarization ratios for plane and unpolarized
 incident light, reduced masses (AMU), force constants (mDyne/A),
 and normal coordinates:
                     1                      2                      3
                    A1                     A1                     B2
 Frequencies --  1770.4981              4145.8616              4262.4722
 Red. masses --     1.0831                 1.0448                 1.0833
 Frc consts  --     2.0003                10.5808                11.5960
 IR Inten    --   104.4607                16.2740                57.6660
 Raman Activ --     5.5070                74.6060                36.5168
 Depolar (P) --     0.5222                 0.1696                 0.7500
 Depolar (U) --     0.6861                 0.2900                 0.8571
  Atom  AN      X      Y      Z        X      Y      Z        X      Y      Z
     1   8     0.00   0.00   0.07     0.00   0.00   0.05     0.00   0.07   0.00
     2   1     0.00  -0.43  -0.56     0.00   0.59  -0.39     0.00  -0.56   0.42
     3   1     0.00   0.43  -0.56     0.00  -0.59  -0.39     0.00  -0.56  -0.42

 -------------------
 - Thermochemistry -
 -------------------
 Temperature   298.150 Kelvin.  Pressure   1.00000 Atm.
 Atom     1 has atomic number  8 and mass  15.99491
 Atom     2 has atomic number  1 and mass   1.00783
 Atom     3 has atomic number  1 and mass   1.00783
 Molecular mass:    18.01056 amu.
 Principal axes and moments of inertia in atomic units:
                           1         2         3
     Eigenvalues --     2.06341   4.07996   6.14338
           X            0.00000   0.00000   1.00000
           Y            1.00000   0.00000   0.00000
           Z            0.00000   1.00000   0.00000
 This molecule is an asymmetric top.
 Rotational symmetry number  2.
 Rotational temperatures (Kelvin)     41.97597    21.22907    14.09873
 Rotational constants (GHZ):         874.63832   442.34257   293.77022
 Zero-point vibrational energy      60882.9 (Joules/Mol)
                                   14.55137 (Kcal/Mol)
 Vibrational temperatures:   2547.35  5964.96  6132.74
          (Kelvin)
 
 Zero-point correction=                           0.023189 (Hartree/Particle)
 Thermal correction to Energy=                    0.026023
 Thermal correction to Enthalpy=                  0.026967
 Thermal correction to Gibbs Free Energy=         0.005606
 Sum of electronic and zero-point Energies=            -76.000426
 Sum of electronic and thermal Energies=               -75.997592
 Sum of electronic and thermal Enthalpies=             -75.996648
 Sum of electronic and thermal Free Energies=          -76.018009
 
                     E (Thermal)             CV                S
                      KCal/Mol        Cal/Mol-Kelvin    Cal/Mol-Kelvin
 Total                   16.330              5.990             44.958
 Electronic               0.000              0.000              0.000
 Translational            0.889              2.981             34.608
 Rotational               0.889              2.981             10.346
 Vibrational             14.552              0.028              0.004
                       Q            Log10(Q)             Ln(Q)
 Total Bot       0.263789D-02         -2.578744         -5.937777
 Total V=0       0.122313D+09          8.087472         18.622093
 Vib (Bot)       0.215709D-10        -10.666131        -24.559675
 Vib (V=0)       0.100019D+01          0.000085          0.000195
 Electronic      0.100000D+01          0.000000          0.000000
 Translational   0.300432D+07          6.477746         14.915562
 Rotational      0.407044D+02          1.609641          3.706336
 ***** Axes restored to original set *****
 -------------------------------------------------------------------
 Center     Atomic                   Forces (Hartrees/Bohr)
 Number     Number              X              Y              Z
 -------------------------------------------------------------------
      1        8           0.000161431    0.000228420    0.000000000
      2        1          -0.000130323   -0.000079151    0.000000000
      3        1          -0.000031108   -0.000149269    0.000000000
 -------------------------------------------------------------------
 Cartesian Forces:  Max     0.000228420 RMS     0.000117725

 GradGradGradGradGradGradGradGradGradGradGradGradGradGradGradGradGradGrad
 Berny optimization.
 Internal  Forces:  Max     0.000133753 RMS     0.000133073
 Search for a local minimum.
 Step number   1 out of a maximum of    2
 All quantities printed in internal units (Hartrees-Bohrs-Radians)
 Second derivative matrix not updated -- analytic derivatives used.
 The second derivative matrix:
                          R1        R2        A1
           R1           0.63518
           R2          -0.00625   0.63518
           A1           0.03059   0.03059   0.17865
 ITU=  0
     Eigenvalues ---    0.17454   0.63305   0.64144
 Angle between quadratic step and forces=  31.44 degrees.
 Linear search not attempted -- first point.
 Iteration  1 RMS(Cart)=  0.00040528 RMS(Int)=  0.00000014
 Iteration  2 RMS(Cart)=  0.00000015 RMS(Int)=  0.00000000
 ClnCor:  largest displacement from symmetrization is 2.69D-15 for atom     3.
 Variable       Old X    -DE/DX   Delta X   Delta X   Delta X     New X
                                 (Linear)    (Quad)   (Total)
    R1        1.78237  -0.00013   0.00000  -0.00025  -0.00025   1.78212
    R2        1.78237  -0.00013   0.00000  -0.00025  -0.00025   1.78212
    A1        1.84867   0.00013   0.00000   0.00083   0.00083   1.84950
         Item               Value     Threshold  Converged?
 Maximum Force            0.000134     0.000450     YES
 RMS     Force            0.000133     0.000300     YES
 Maximum Displacement     0.000406     0.001800     YES
 RMS     Displacement     0.000405     0.001200     YES
 Predicted change in Energy=-8.923242D-08
 Optimization completed.
    -- Stationary point found.
                           ----------------------------
                           !   Optimized Parameters   !
                           ! (Angstroms and Degrees)  !
 --------------------------                            --------------------------
 ! Name  Definition              Value          Derivative Info.                !
 --------------------------------------------------------------------------------
 ! R1    R(1,2)                  0.9432         -DE/DX =   -0.0001              !
 ! R2    R(1,3)                  0.9432         -DE/DX =   -0.0001              !
 ! A1    A(2,1,3)              105.9209         -DE/DX =    0.0001              !
 --------------------------------------------------------------------------------
 GradGradGradGradGradGradGradGradGradGradGradGradGradGradGradGradGradGrad

 1\1\GINC-STUDENT-LENOVO-S510\Freq\RHF\6-31G(d,p)\H2O1\STUDENT\01-Mar-2
 021\0\\#N Geom=AllCheck Guess=TCheck SCRF=Check GenChk RHF/6-31G(d,p) 
 Freq\\Title Card Required\\0,1\O,0.658786873,-0.6534252581,0.\H,1.6015
 165326,-0.6239710966,0.\H,0.3718619589,0.2450628344,0.\\Version=EM64L-
 G09RevC.01\State=1-A1\HF=-76.0236149\RMSD=2.136e-10\RMSF=1.177e-04\Zer
 oPoint=0.0231891\Thermal=0.0260232\Dipole=0.4878591,0.6903046,0.\Dipol
 eDeriv=-0.5053963,0.0342809,0.,0.0342809,-0.4811173,0.,0.,0.,-0.787319
 3,0.1784195,-0.0250089,0.,-0.0618788,0.3148373,0.,0.,0.,0.3936596,0.32
 69767,-0.0092719,0.,0.0275979,0.16628,0.,0.,0.,0.3936596\Polar=6.14861
 88,-0.8779692,5.5268084,0.,0.,2.931388\PolarDeriv=-6.5627308,-1.266760
 6,0.4266724,0.,0.,0.0498577,-1.8518412,0.8401664,-6.8304808,0.,0.,0.07
 0547,0.,0.,0.,-1.0616446,-1.5021924,0.,7.4543215,-0.3437659,0.3628762,
 0.,0.,-0.0438449,0.7148505,1.2401017,0.2699301,0.,0.,-0.0219049,0.,0.,
 0.,1.6322451,-0.0273125,0.,-0.8915907,1.6105265,-0.7895485,0.,0.,-0.00
 60127,1.1369907,-2.0802682,6.5605507,0.,0.,-0.0486421,0.,0.,0.,-0.5706
 005,1.5295048,0.\HyperPolar=23.2146896,2.5853315,-7.0584228,20.2752573
 ,0.,0.,0.,0.2426333,0.3433182,0.\PG=C02V [C2(O1),SGV(H2)]\NImag=0\\0.7
 2299656,-0.13375640,0.62826531,0.,0.,0.00026052,-0.61941909,0.01029797
 ,0.,0.63569265,-0.05921067,-0.05621184,0.,0.00089909,0.05580127,0.,0.,
 -0.00013026,0.,0.,0.00008648,-0.10357747,0.12345843,0.,-0.01627355,0.0
 5831158,0.,0.11985102,0.19296707,-0.57205347,0.,-0.01119706,0.00041057
 ,0.,-0.18177001,0.57164289,0.,0.,-0.00013026,0.,0.,0.00004378,0.,0.,0.
 00008648\\-0.00016143,-0.00022842,0.,0.00013032,0.00007915,0.,0.000031
 11,0.00014927,0.\\\@


 WE HAVE SEEN THAT MAN ON THE AVERAGE DOES NOT LIVE ABOVE
 TWO-AND-TWENTY YEARS.  DURING THESE TWO AND TWENTY
 YEARS HE IS LIABLE TO TWO AND TWENTY THOUSAND EVILS,
 MANY OF WHICH ARE INCURABLE.  YET EVEN IN THIS DREADFUL STATE
 MEN STILL STRUT AND POSE ON THE STAGE OF LIFE.
 THEY MAKE LOVE AT THE RISK OF DESTRUCTION,
 INTRIGUE, CARRY ON WAR, AND FORM PROJECTS, JUST AS IF THEY
 WERE TO LIVE IN LUXURY AND HAPPINESS FOR A THOUSAND
 AGES.

                                              -- VOLTAIRE
 Job cpu time:  0 days  0 hours  0 minutes  1.2 seconds.
 File lengths (MBytes):  RWF=      5 Int=      0 D2E=      0 Chk=      1 Scr=      1
 Normal termination of Gaussian 09 at Mon Mar  1 11:08:38 2021.
