 Entering Gaussian System, Link 0=g09
 Input=h3o_b_c3v.com
 Output=h3o_b_c3v.log
 Initial command:
 /home/student/g09/l1.exe /home/student/Aniruddha_1811022/Gau-3946.inp -scrdir=/home/student/Aniruddha_1811022/
 Entering Link 1 = /home/student/g09/l1.exe PID=      3948.
  
 Copyright (c) 1988,1990,1992,1993,1995,1998,2003,2009,2011,
            Gaussian, Inc.  All Rights Reserved.
  
 This is part of the Gaussian(R) 09 program.  It is based on
 the Gaussian(R) 03 system (copyright 2003, Gaussian, Inc.),
 the Gaussian(R) 98 system (copyright 1998, Gaussian, Inc.),
 the Gaussian(R) 94 system (copyright 1995, Gaussian, Inc.),
 the Gaussian 92(TM) system (copyright 1992, Gaussian, Inc.),
 the Gaussian 90(TM) system (copyright 1990, Gaussian, Inc.),
 the Gaussian 88(TM) system (copyright 1988, Gaussian, Inc.),
 the Gaussian 86(TM) system (copyright 1986, Carnegie Mellon
 University), and the Gaussian 82(TM) system (copyright 1983,
 Carnegie Mellon University). Gaussian is a federally registered
 trademark of Gaussian, Inc.
  
 This software contains proprietary and confidential information,
 including trade secrets, belonging to Gaussian, Inc.
  
 This software is provided under written license and may be
 used, copied, transmitted, or stored only in accord with that
 written license.
  
 The following legend is applicable only to US Government
 contracts under FAR:
  
                    RESTRICTED RIGHTS LEGEND
  
 Use, reproduction and disclosure by the US Government is
 subject to restrictions as set forth in subparagraphs (a)
 and (c) of the Commercial Computer Software - Restricted
 Rights clause in FAR 52.227-19.
  
 Gaussian, Inc.
 340 Quinnipiac St., Bldg. 40, Wallingford CT 06492
  
  
 ---------------------------------------------------------------
 Warning -- This program may not be used in any manner that
 competes with the business of Gaussian, Inc. or will provide
 assistance to any competitor of Gaussian, Inc.  The licensee
 of this program is prohibited from giving any competitor of
 Gaussian, Inc. access to this program.  By using this program,
 the user acknowledges that Gaussian, Inc. is engaged in the
 business of creating and licensing software in the field of
 computational chemistry and represents and warrants to the
 licensee that it is not a competitor of Gaussian, Inc. and that
 it will not use this program in any manner prohibited above.
 ---------------------------------------------------------------
  

 Cite this work as:
 Gaussian 09, Revision C.01,
 M. J. Frisch, G. W. Trucks, H. B. Schlegel, G. E. Scuseria, 
 M. A. Robb, J. R. Cheeseman, G. Scalmani, V. Barone, B. Mennucci, 
 G. A. Petersson, H. Nakatsuji, M. Caricato, X. Li, H. P. Hratchian, 
 A. F. Izmaylov, J. Bloino, G. Zheng, J. L. Sonnenberg, M. Hada, 
 M. Ehara, K. Toyota, R. Fukuda, J. Hasegawa, M. Ishida, T. Nakajima, 
 Y. Honda, O. Kitao, H. Nakai, T. Vreven, J. A. Montgomery, Jr., 
 J. E. Peralta, F. Ogliaro, M. Bearpark, J. J. Heyd, E. Brothers, 
 K. N. Kudin, V. N. Staroverov, T. Keith, R. Kobayashi, J. Normand, 
 K. Raghavachari, A. Rendell, J. C. Burant, S. S. Iyengar, J. Tomasi, 
 M. Cossi, N. Rega, J. M. Millam, M. Klene, J. E. Knox, J. B. Cross, 
 V. Bakken, C. Adamo, J. Jaramillo, R. Gomperts, R. E. Stratmann, 
 O. Yazyev, A. J. Austin, R. Cammi, C. Pomelli, J. W. Ochterski, 
 R. L. Martin, K. Morokuma, V. G. Zakrzewski, G. A. Voth, 
 P. Salvador, J. J. Dannenberg, S. Dapprich, A. D. Daniels, 
 O. Farkas, J. B. Foresman, J. V. Ortiz, J. Cioslowski, 
 and D. J. Fox, Gaussian, Inc., Wallingford CT, 2010.
 
 ******************************************
 Gaussian 09:  EM64L-G09RevC.01 23-Sep-2011
                 1-Mar-2021 
 ******************************************
 %chk=h3o_c3v.chk
 ------------------------------------------
 # b3lyp/6-31g** geom=connectivity opt freq
 ------------------------------------------
 1/14=-1,18=20,19=15,26=3,38=1,57=2/1,3;
 2/9=110,12=2,17=6,18=5,40=1/2;
 3/5=1,6=6,7=101,11=2,16=1,25=1,30=1,71=1,74=-5/1,2,3;
 4//1;
 5/5=2,38=5/2;
 6/7=2,8=2,9=2,10=2,28=1/1;
 7//1,2,3,16;
 1/14=-1,18=20,19=15/3(2);
 2/9=110/2;
 99//99;
 2/9=110/2;
 3/5=1,6=6,7=101,11=2,16=1,25=1,30=1,71=1,74=-5/1,2,3;
 4/5=5,16=3/1;
 5/5=2,38=5/2;
 7//1,2,3,16;
 1/14=-1,18=20,19=15/3(-5);
 2/9=110/2;
 6/7=2,8=2,9=2,10=2,19=2,28=1/1;
 99/9=1/99;
 -------------------
 Title Card Required
 -------------------
 Charge =  1 Multiplicity = 1
 Symbolic Z-Matrix:
 O                     0.        0.       -0.07304 
 H                     0.        0.91225   0.16764 
 H                    -0.79003  -0.45612   0.16764 
 H                     0.79003  -0.45612   0.16764 
 

 GradGradGradGradGradGradGradGradGradGradGradGradGradGradGradGradGradGrad
 Berny optimization.
 Initialization pass.
                           ----------------------------
                           !    Initial Parameters    !
                           ! (Angstroms and Degrees)  !
 --------------------------                            --------------------------
 ! Name  Definition              Value          Derivative Info.                !
 --------------------------------------------------------------------------------
 ! R1    R(1,2)                  0.9435         estimate D2E/DX2                !
 ! R2    R(1,3)                  0.9435         estimate D2E/DX2                !
 ! R3    R(1,4)                  0.9435         estimate D2E/DX2                !
 ! A1    A(2,1,3)              113.727          estimate D2E/DX2                !
 ! A2    A(2,1,4)              113.727          estimate D2E/DX2                !
 ! A3    A(3,1,4)              113.727          estimate D2E/DX2                !
 ! D1    D(2,1,4,3)            132.3226         estimate D2E/DX2                !
 --------------------------------------------------------------------------------
 Trust Radius=3.00D-01 FncErr=1.00D-07 GrdErr=1.00D-06
 Number of steps in this run=     20 maximum allowed number of steps=    100.
 GradGradGradGradGradGradGradGradGradGradGradGradGradGradGradGradGradGrad

                          Input orientation:                          
 ---------------------------------------------------------------------
 Center     Atomic      Atomic             Coordinates (Angstroms)
 Number     Number       Type             X           Y           Z
 ---------------------------------------------------------------------
      1          8           0        0.000000    0.000000   -0.073044
      2          1           0        0.000000    0.912245    0.167641
      3          1           0       -0.790028   -0.456123    0.167641
      4          1           0        0.790028   -0.456123    0.167641
 ---------------------------------------------------------------------
                    Distance matrix (angstroms):
                    1          2          3          4
     1  O    0.000000
     2  H    0.943462   0.000000
     3  H    0.943462   1.580055   0.000000
     4  H    0.943462   1.580055   1.580055   0.000000
 Stoichiometry    H3O(1+)
 Framework group  C3V[C3(O),3SGV(H)]
 Deg. of freedom     2
 Full point group                 C3V     NOp   6
 Largest Abelian subgroup         CS      NOp   2
 Largest concise Abelian subgroup CS      NOp   2
                         Standard orientation:                         
 ---------------------------------------------------------------------
 Center     Atomic      Atomic             Coordinates (Angstroms)
 Number     Number       Type             X           Y           Z
 ---------------------------------------------------------------------
      1          8           0        0.000000    0.000000    0.065641
      2          1           0        0.000000    0.912245   -0.175044
      3          1           0        0.790028   -0.456123   -0.175044
      4          1           0       -0.790028   -0.456123   -0.175044
 ---------------------------------------------------------------------
 Rotational constants (GHZ):    359.6085478    359.6085478    200.8571873
 Standard basis: 6-31G(d,p) (6D, 7F)
 There are    20 symmetry adapted basis functions of A'  symmetry.
 There are    10 symmetry adapted basis functions of A"  symmetry.
 Integral buffers will be    131072 words long.
 Raffenetti 2 integral format.
 Two-electron integral symmetry is turned on.
    30 basis functions,    49 primitive gaussians,    30 cartesian basis functions
     5 alpha electrons        5 beta electrons
       nuclear repulsion energy        14.4660580455 Hartrees.
 NAtoms=    4 NActive=    4 NUniq=    2 SFac= 4.00D+00 NAtFMM=   60 NAOKFM=F Big=F
 One-electron integrals computed using PRISM.
 NBasis=    30 RedAO= T  NBF=    20    10
 NBsUse=    30 1.00D-06 NBFU=    20    10
 Harris functional with IExCor=  402 diagonalized for initial guess.
 ExpMin= 1.61D-01 ExpMax= 5.48D+03 ExpMxC= 8.25D+02 IAcc=1 IRadAn=         1 AccDes= 0.00D+00
 HarFok:  IExCor=  402 AccDes= 0.00D+00 IRadAn=         1 IDoV= 1
 ScaDFX=  1.000000  1.000000  1.000000  1.000000
 FoFCou: FMM=F IPFlag=           0 FMFlag=      100000 FMFlg1=           0
         NFxFlg=           0 DoJE=T BraDBF=F KetDBF=T FulRan=T
         Omega=  0.000000  0.000000  1.000000  0.000000  0.000000 ICntrl=     500 IOpCl=  0
         NMat0=    1 NMatS0=    1 NMatT0=    0 NMatD0=    1 NMtDS0=    0 NMtDT0=    0
         I1Cent=           4 NGrid=           0.
 Petite list used in FoFCou.
 Initial guess orbital symmetries:
       Occupied  (A1) (A1) (E) (E) (A1)
       Virtual   (A1) (E) (E) (E) (E) (A1) (A1) (E) (E) (A1) (E)
                 (E) (A1) (A2) (E) (E) (E) (E) (A1) (E) (E) (A1)
                 (E) (E) (A1)
 The electronic state of the initial guess is 1-A1.
 Requested convergence on RMS density matrix=1.00D-08 within 128 cycles.
 Requested convergence on MAX density matrix=1.00D-06.
 Requested convergence on             energy=1.00D-06.
 No special actions if energy rises.
 Keep R1 ints in memory in canonical form, NReq=1021027.
 Integral accuracy reduced to 1.0D-05 until final iterations.
 Initial convergence to 1.0D-05 achieved.  Increase integral accuracy.
 SCF Done:  E(RB3LYP) =  -76.7014913668     A.U. after    9 cycles
             Convg  =    0.3773D-08             -V/T =  2.0065

 **********************************************************************

            Population analysis using the SCF density.

 **********************************************************************

 Orbital symmetries:
       Occupied  (A1) (A1) (E) (E) (A1)
       Virtual   (A1) (E) (E) (E) (E) (A1) (A1) (E) (E) (A1) (E)
                 (E) (A1) (A2) (E) (E) (E) (E) (A1) (E) (E) (A1)
                 (E) (E) (A1)
 The electronic state is 1-A1.
 Alpha  occ. eigenvalues --  -19.59355  -1.47693  -0.96407  -0.96407  -0.74951
 Alpha virt. eigenvalues --   -0.25185  -0.14810  -0.14810   0.41112   0.41112
 Alpha virt. eigenvalues --    0.46561   0.50333   0.63055   0.63055   0.88060
 Alpha virt. eigenvalues --    1.06350   1.06350   1.68164   1.72259   1.94211
 Alpha virt. eigenvalues --    1.94211   2.19489   2.19489   2.32260   2.75640
 Alpha virt. eigenvalues --    2.75640   2.96725   3.12037   3.12037   3.66536
          Condensed to atoms (all electrons):
              1          2          3          4
     1  O    7.385004   0.316091   0.316091   0.316091
     2  H    0.316091   0.262278  -0.011397  -0.011397
     3  H    0.316091  -0.011397   0.262278  -0.011397
     4  H    0.316091  -0.011397  -0.011397   0.262278
 Mulliken atomic charges:
              1
     1  O   -0.333277
     2  H    0.444426
     3  H    0.444426
     4  H    0.444426
 Sum of Mulliken atomic charges =   1.00000
 Mulliken charges with hydrogens summed into heavy atoms:
              1
     1  O    1.000000
 Sum of Mulliken charges with hydrogens summed into heavy atoms =   1.00000
 Electronic spatial extent (au):  <R**2>=             17.7225
 Charge=              1.0000 electrons
 Dipole moment (field-independent basis, Debye):
    X=              0.0000    Y=              0.0000    Z=             -1.3976  Tot=              1.3976
 Quadrupole moment (field-independent basis, Debye-Ang):
   XX=             -2.5643   YY=             -2.5643   ZZ=             -6.1100
   XY=              0.0000   XZ=              0.0000   YZ=              0.0000
 Traceless Quadrupole moment (field-independent basis, Debye-Ang):
   XX=              1.1819   YY=              1.1819   ZZ=             -2.3638
   XY=              0.0000   XZ=              0.0000   YZ=              0.0000
 Octapole moment (field-independent basis, Debye-Ang**2):
  XXX=              0.0000  YYY=              1.5466  ZZZ=             -0.6960  XYY=              0.0000
  XXY=             -1.5466  XXZ=             -0.7863  XZZ=              0.0000  YZZ=              0.0000
  YYZ=             -0.7863  XYZ=              0.0000
 Hexadecapole moment (field-independent basis, Debye-Ang**3):
 XXXX=             -3.0622 YYYY=             -3.0622 ZZZZ=             -4.4162 XXXY=              0.0000
 XXXZ=              0.0000 YYYX=              0.0000 YYYZ=             -0.3198 ZZZX=              0.0000
 ZZZY=              0.0000 XXYY=             -1.0207 XXZZ=             -1.5271 YYZZ=             -1.5271
 XXYZ=              0.3198 YYXZ=              0.0000 ZZXY=              0.0000
 N-N= 1.446605804549D+01 E-N=-2.055577436335D+02  KE= 7.620544050560D+01
 Symmetry A'   KE= 7.224151049076D+01
 Symmetry A"   KE= 3.963930014837D+00
 Calling FoFJK, ICntrl=      2127 FMM=F ISym2X=1 I1Cent= 0 IOpClX= 0 NMat=1 NMatS=1 NMatT=0.
 ***** Axes restored to original set *****
 -------------------------------------------------------------------
 Center     Atomic                   Forces (Hartrees/Bohr)
 Number     Number              X              Y              Z
 -------------------------------------------------------------------
      1        8           0.000000000    0.000000000   -0.027143841
      2        1           0.000000000    0.038983320    0.009047947
      3        1          -0.033760546   -0.019491660    0.009047947
      4        1           0.033760545   -0.019491660    0.009047947
 -------------------------------------------------------------------
 Cartesian Forces:  Max     0.038983320 RMS     0.021489303

 GradGradGradGradGradGradGradGradGradGradGradGradGradGradGradGradGradGrad
 Berny optimization.
 Internal  Forces:  Max     0.040001665 RMS     0.026199987
 Search for a local minimum.
 Step number   1 out of a maximum of   20
 All quantities printed in internal units (Hartrees-Bohrs-Radians)
 Mixed Optimization -- RFO/linear search
 Second derivative matrix not updated -- first step.
 The second derivative matrix:
                          R1        R2        R3        A1        A2
           R1           0.59188
           R2           0.00000   0.59188
           R3           0.00000   0.00000   0.59188
           A1           0.00000   0.00000   0.00000   0.16000
           A2           0.00000   0.00000   0.00000   0.00000   0.16000
           A3           0.00000   0.00000   0.00000   0.00000   0.00000
           D1           0.00000   0.00000   0.00000   0.00000   0.00000
                          A3        D1
           A3           0.16000
           D1           0.00000   0.01776
 ITU=  0
     Eigenvalues ---    0.04532   0.16000   0.16000   0.59188   0.59188
     Eigenvalues ---    0.59188
 RFO step:  Lambda=-8.07879796D-03 EMin= 4.53191851D-02
 Linear search not attempted -- first point.
 Iteration  1 RMS(Cart)=  0.04583767 RMS(Int)=  0.00048994
 Iteration  2 RMS(Cart)=  0.00024691 RMS(Int)=  0.00016545
 Iteration  3 RMS(Cart)=  0.00000017 RMS(Int)=  0.00016545
 ClnCor:  largest displacement from symmetrization is 1.14D-03 for atom     4.
 Variable       Old X    -DE/DX   Delta X   Delta X   Delta X     New X
                                 (Linear)    (Quad)   (Total)
    R1        1.78289   0.04000   0.00000   0.06667   0.06633   1.84921
    R2        1.78289   0.04000   0.00000   0.06667   0.06633   1.84921
    R3        1.78289   0.04000   0.00000   0.06667   0.06633   1.84921
    A1        1.98491   0.00002   0.00000   0.00816   0.00951   1.99442
    A2        1.98491   0.00088   0.00000   0.01062   0.00951   1.99442
    A3        1.98491   0.00088   0.00000   0.01062   0.00951   1.99442
    D1        2.30946   0.00177   0.00000   0.03319   0.03393   2.34339
         Item               Value     Threshold  Converged?
 Maximum Force            0.040002     0.000450     NO 
 RMS     Force            0.026200     0.000300     NO 
 Maximum Displacement     0.069664     0.001800     NO 
 RMS     Displacement     0.045630     0.001200     NO 
 Predicted change in Energy=-4.098846D-03
 GradGradGradGradGradGradGradGradGradGradGradGradGradGradGradGradGradGrad

                          Input orientation:                          
 ---------------------------------------------------------------------
 Center     Atomic      Atomic             Coordinates (Angstroms)
 Number     Number       Type             X           Y           Z
 ---------------------------------------------------------------------
      1          8           0        0.000000    0.000000   -0.071206
      2          1           0        0.000000    0.949110    0.167062
      3          1           0       -0.821953   -0.474555    0.167062
      4          1           0        0.821953   -0.474555    0.167062
 ---------------------------------------------------------------------
                    Distance matrix (angstroms):
                    1          2          3          4
     1  O    0.000000
     2  H    0.978561   0.000000
     3  H    0.978561   1.643907   0.000000
     4  H    0.978561   1.643907   1.643907   0.000000
 Stoichiometry    H3O(1+)
 Framework group  C3V[C3(O),3SGV(H)]
 Deg. of freedom     2
 Full point group                 C3V     NOp   6
 Largest Abelian subgroup         CS      NOp   2
 Largest concise Abelian subgroup CS      NOp   2
                         Standard orientation:                         
 ---------------------------------------------------------------------
 Center     Atomic      Atomic             Coordinates (Angstroms)
 Number     Number       Type             X           Y           Z
 ---------------------------------------------------------------------
      1          8           0        0.000000    0.000000    0.064982
      2          1           0        0.000000    0.949110   -0.173286
      3          1           0        0.821953   -0.474555   -0.173286
      4          1           0       -0.821953   -0.474555   -0.173286
 ---------------------------------------------------------------------
 Rotational constants (GHZ):    335.5442439    335.5442439    185.5571616
 Standard basis: 6-31G(d,p) (6D, 7F)
 There are    20 symmetry adapted basis functions of A'  symmetry.
 There are    10 symmetry adapted basis functions of A"  symmetry.
 Integral buffers will be    131072 words long.
 Raffenetti 2 integral format.
 Two-electron integral symmetry is turned on.
    30 basis functions,    49 primitive gaussians,    30 cartesian basis functions
     5 alpha electrons        5 beta electrons
       nuclear repulsion energy        13.9442086634 Hartrees.
 NAtoms=    4 NActive=    4 NUniq=    2 SFac= 4.00D+00 NAtFMM=   60 NAOKFM=F Big=F
 One-electron integrals computed using PRISM.
 NBasis=    30 RedAO= T  NBF=    20    10
 NBsUse=    30 1.00D-06 NBFU=    20    10
 Initial guess read from the read-write file.
 B after Tr=     0.000000    0.000000    0.000000
         Rot=    1.000000    0.000000    0.000000    0.000000 Ang=   0.00 deg.
 Initial guess orbital symmetries:
       Occupied  (A1) (A1) (E) (E) (A1)
       Virtual   (A1) (E) (E) (E) (E) (A1) (A1) (E) (E) (A1) (E)
                 (E) (A1) (A2) (E) (E) (E) (E) (A1) (E) (E) (A1)
                 (E) (E) (A1)
 Harris functional with IExCor=  402 diagonalized for initial guess.
 ExpMin= 1.61D-01 ExpMax= 5.48D+03 ExpMxC= 8.25D+02 IAcc=1 IRadAn=         1 AccDes= 0.00D+00
 HarFok:  IExCor=  402 AccDes= 0.00D+00 IRadAn=         1 IDoV= 1
 ScaDFX=  1.000000  1.000000  1.000000  1.000000
 FoFCou: FMM=F IPFlag=           0 FMFlag=      100000 FMFlg1=           0
         NFxFlg=           0 DoJE=T BraDBF=F KetDBF=T FulRan=T
         Omega=  0.000000  0.000000  1.000000  0.000000  0.000000 ICntrl=     500 IOpCl=  0
         NMat0=    1 NMatS0=    1 NMatT0=    0 NMatD0=    1 NMtDS0=    0 NMtDT0=    0
         I1Cent=           4 NGrid=           0.
 Petite list used in FoFCou.
 Requested convergence on RMS density matrix=1.00D-08 within 128 cycles.
 Requested convergence on MAX density matrix=1.00D-06.
 Requested convergence on             energy=1.00D-06.
 No special actions if energy rises.
 Keep R1 ints in memory in canonical form, NReq=1021027.
 Integral accuracy reduced to 1.0D-05 until final iterations.
 Initial convergence to 1.0D-05 achieved.  Increase integral accuracy.
 SCF Done:  E(RB3LYP) =  -76.7055816772     A.U. after    9 cycles
             Convg  =    0.2395D-09             -V/T =  2.0091
 Calling FoFJK, ICntrl=      2127 FMM=F ISym2X=1 I1Cent= 0 IOpClX= 0 NMat=1 NMatS=1 NMatT=0.
 ***** Axes restored to original set *****
 -------------------------------------------------------------------
 Center     Atomic                   Forces (Hartrees/Bohr)
 Number     Number              X              Y              Z
 -------------------------------------------------------------------
      1        8           0.000000000    0.000000000   -0.003403161
      2        1           0.000000000    0.002204775    0.001134387
      3        1          -0.001909391   -0.001102388    0.001134387
      4        1           0.001909391   -0.001102388    0.001134387
 -------------------------------------------------------------------
 Cartesian Forces:  Max     0.003403161 RMS     0.001581800

 GradGradGradGradGradGradGradGradGradGradGradGradGradGradGradGradGradGrad
 Berny optimization.
 Using GEDIIS/GDIIS optimizer.
 Internal  Forces:  Max     0.002414630 RMS     0.001629415
 Search for a local minimum.
 Step number   2 out of a maximum of   20
 All quantities printed in internal units (Hartrees-Bohrs-Radians)
 Mixed Optimization -- RFO/linear search
 Update second derivatives using D2CorX and points    1    2
 DE= -4.09D-03 DEPred=-4.10D-03 R= 9.98D-01
 SS=  1.41D+00  RLast= 1.21D-01 DXNew= 5.0454D-01 3.6274D-01
 Trust test= 9.98D-01 RLast= 1.21D-01 DXMaxT set to 3.63D-01
 The second derivative matrix:
                          R1        R2        R3        A1        A2
           R1           0.58224
           R2          -0.00964   0.58224
           R3          -0.00964  -0.00964   0.58224
           A1          -0.00747  -0.00747  -0.00747   0.15971
           A2          -0.00124  -0.00124  -0.00124  -0.00029   0.15992
           A3          -0.00124  -0.00124  -0.00124  -0.00029  -0.00008
           D1           0.01009   0.01009   0.01009  -0.00011   0.00033
                          A3        D1
           A3           0.15992
           D1           0.00033   0.01864
 ITU=  1  0
 Use linear search instead of GDIIS.
     Eigenvalues ---    0.04358   0.16000   0.16007   0.56332   0.59188
     Eigenvalues ---    0.59188
 RFO step:  Lambda=-2.48143740D-05 EMin= 4.35754738D-02
 Quartic linear search produced a step of  0.06654.
 Iteration  1 RMS(Cart)=  0.00452188 RMS(Int)=  0.00007804
 Iteration  2 RMS(Cart)=  0.00003917 RMS(Int)=  0.00006151
 Iteration  3 RMS(Cart)=  0.00000000 RMS(Int)=  0.00006151
 ClnCor:  largest displacement from symmetrization is 6.63D-04 for atom     4.
 Variable       Old X    -DE/DX   Delta X   Delta X   Delta X     New X
                                 (Linear)    (Quad)   (Total)
    R1        1.84921   0.00241   0.00441   0.00063   0.00525   1.85446
    R2        1.84921   0.00241   0.00441   0.00063   0.00525   1.85446
    R3        1.84921   0.00241   0.00441   0.00063   0.00525   1.85446
    A1        1.99442   0.00000   0.00063  -0.00481  -0.00523   1.98919
    A2        1.99442  -0.00041   0.00063  -0.00632  -0.00523   1.98919
    A3        1.99442  -0.00041   0.00063  -0.00632  -0.00523   1.98919
    D1        2.34339  -0.00087   0.00226  -0.02089  -0.01890   2.32450
         Item               Value     Threshold  Converged?
 Maximum Force            0.002415     0.000450     NO 
 RMS     Force            0.001629     0.000300     NO 
 Maximum Displacement     0.009957     0.001800     NO 
 RMS     Displacement     0.004536     0.001200     NO 
 Predicted change in Energy=-2.779004D-05
 GradGradGradGradGradGradGradGradGradGradGradGradGradGradGradGradGradGrad

                          Input orientation:                          
 ---------------------------------------------------------------------
 Center     Atomic      Atomic             Coordinates (Angstroms)
 Number     Number       Type             X           Y           Z
 ---------------------------------------------------------------------
      1          8           0        0.000000    0.000000   -0.076475
      2          1           0        0.000000    0.950191    0.168800
      3          1           0       -0.822890   -0.475096    0.168800
      4          1           0        0.822890   -0.475096    0.168800
 ---------------------------------------------------------------------
                    Distance matrix (angstroms):
                    1          2          3          4
     1  O    0.000000
     2  H    0.981337   0.000000
     3  H    0.981337   1.645779   0.000000
     4  H    0.981337   1.645779   1.645779   0.000000
 Stoichiometry    H3O(1+)
 Framework group  C3V[C3(O),3SGV(H)]
 Deg. of freedom     2
 Full point group                 C3V     NOp   6
 Largest Abelian subgroup         CS      NOp   2
 Largest concise Abelian subgroup CS      NOp   2
                         Standard orientation:                         
 ---------------------------------------------------------------------
 Center     Atomic      Atomic             Coordinates (Angstroms)
 Number     Number       Type             X           Y           Z
 ---------------------------------------------------------------------
      1          8           0        0.000000    0.000000    0.066893
      2          1           0        0.000000    0.950191   -0.178381
      3          1           0        0.822890   -0.475096   -0.178381
      4          1           0       -0.822890   -0.475096   -0.178381
 ---------------------------------------------------------------------
 Rotational constants (GHZ):    332.9535702    332.9535702    185.1351601
 Standard basis: 6-31G(d,p) (6D, 7F)
 There are    20 symmetry adapted basis functions of A'  symmetry.
 There are    10 symmetry adapted basis functions of A"  symmetry.
 Integral buffers will be    131072 words long.
 Raffenetti 2 integral format.
 Two-electron integral symmetry is turned on.
    30 basis functions,    49 primitive gaussians,    30 cartesian basis functions
     5 alpha electrons        5 beta electrons
       nuclear repulsion energy        13.9063919853 Hartrees.
 NAtoms=    4 NActive=    4 NUniq=    2 SFac= 4.00D+00 NAtFMM=   60 NAOKFM=F Big=F
 One-electron integrals computed using PRISM.
 NBasis=    30 RedAO= T  NBF=    20    10
 NBsUse=    30 1.00D-06 NBFU=    20    10
 Initial guess read from the read-write file.
 B after Tr=     0.000000    0.000000    0.000000
         Rot=    1.000000    0.000000    0.000000    0.000000 Ang=   0.00 deg.
 Initial guess orbital symmetries:
       Occupied  (A1) (A1) (E) (E) (A1)
       Virtual   (A1) (E) (E) (E) (E) (A1) (A1) (E) (E) (A1) (E)
                 (E) (A1) (A2) (E) (E) (E) (E) (A1) (E) (E) (A1)
                 (E) (E) (A1)
 Requested convergence on RMS density matrix=1.00D-08 within 128 cycles.
 Requested convergence on MAX density matrix=1.00D-06.
 Requested convergence on             energy=1.00D-06.
 No special actions if energy rises.
 Keep R1 ints in memory in canonical form, NReq=1021027.
 SCF Done:  E(RB3LYP) =  -76.7056198489     A.U. after    7 cycles
             Convg  =    0.5707D-09             -V/T =  2.0092
 Calling FoFJK, ICntrl=      2127 FMM=F ISym2X=1 I1Cent= 0 IOpClX= 0 NMat=1 NMatS=1 NMatT=0.
 ***** Axes restored to original set *****
 -------------------------------------------------------------------
 Center     Atomic                   Forces (Hartrees/Bohr)
 Number     Number              X              Y              Z
 -------------------------------------------------------------------
      1        8           0.000000000    0.000000000   -0.001345710
      2        1           0.000000000   -0.000042314    0.000448570
      3        1           0.000036645    0.000021157    0.000448570
      4        1          -0.000036645    0.000021157    0.000448570
 -------------------------------------------------------------------
 Cartesian Forces:  Max     0.001345710 RMS     0.000449069

 GradGradGradGradGradGradGradGradGradGradGradGradGradGradGradGradGradGrad
 Berny optimization.
 Using GEDIIS/GDIIS optimizer.
 Internal  Forces:  Max     0.000688399 RMS     0.000318177
 Search for a local minimum.
 Step number   3 out of a maximum of   20
 All quantities printed in internal units (Hartrees-Bohrs-Radians)
 Mixed Optimization -- En-DIIS/RFO-DIIS
 Update second derivatives using D2CorX and points    1    2    3
 DE= -3.82D-05 DEPred=-2.78D-05 R= 1.37D+00
 SS=  1.41D+00  RLast= 2.28D-02 DXNew= 6.1006D-01 6.8526D-02
 Trust test= 1.37D+00 RLast= 2.28D-02 DXMaxT set to 3.63D-01
 The second derivative matrix:
                          R1        R2        R3        A1        A2
           R1           0.58957
           R2          -0.00231   0.58957
           R3          -0.00231  -0.00231   0.58957
           A1           0.03734   0.03734   0.03734   0.14650
           A2           0.03498   0.03498   0.03498  -0.01225   0.14922
           A3           0.03498   0.03498   0.03498  -0.01225  -0.01078
           D1           0.00869   0.00869   0.00869  -0.00281  -0.00182
                          A3        D1
           A3           0.14922
           D1          -0.00182   0.01882
 ITU=  1  1  0
 Use linear search instead of GDIIS.
     Eigenvalues ---    0.02926   0.15914   0.16000   0.59188   0.59188
     Eigenvalues ---    0.59191
 RFO step:  Lambda=-1.41520901D-05 EMin= 2.92565604D-02
 Quartic linear search produced a step of  0.43071.
 Iteration  1 RMS(Cart)=  0.00540647 RMS(Int)=  0.00011806
 Iteration  2 RMS(Cart)=  0.00005354 RMS(Int)=  0.00010257
 Iteration  3 RMS(Cart)=  0.00000000 RMS(Int)=  0.00010257
 ClnCor:  largest displacement from symmetrization is 2.73D-04 for atom     4.
 Variable       Old X    -DE/DX   Delta X   Delta X   Delta X     New X
                                 (Linear)    (Quad)   (Total)
    R1        1.85446   0.00007   0.00226  -0.00053   0.00181   1.85627
    R2        1.85446   0.00007   0.00226  -0.00053   0.00181   1.85627
    R3        1.85446   0.00007   0.00226  -0.00053   0.00181   1.85627
    A1        1.98919  -0.00001  -0.00225  -0.00410  -0.00691   1.98228
    A2        1.98919  -0.00033  -0.00225  -0.00476  -0.00691   1.98228
    A3        1.98919  -0.00033  -0.00225  -0.00476  -0.00691   1.98228
    D1        2.32450  -0.00069  -0.00814  -0.01593  -0.02409   2.30040
         Item               Value     Threshold  Converged?
 Maximum Force            0.000688     0.000450     NO 
 RMS     Force            0.000318     0.000300     NO 
 Maximum Displacement     0.011907     0.001800     NO 
 RMS     Displacement     0.005405     0.001200     NO 
 Predicted change in Energy=-1.054291D-05
 GradGradGradGradGradGradGradGradGradGradGradGradGradGradGradGradGradGrad

                          Input orientation:                          
 ---------------------------------------------------------------------
 Center     Atomic      Atomic             Coordinates (Angstroms)
 Number     Number       Type             X           Y           Z
 ---------------------------------------------------------------------
      1          8           0        0.000000    0.000000   -0.082776
      2          1           0        0.000000    0.948975    0.170892
      3          1           0       -0.821837   -0.474488    0.170892
      4          1           0        0.821837   -0.474488    0.170892
 ---------------------------------------------------------------------
                    Distance matrix (angstroms):
                    1          2          3          4
     1  O    0.000000
     2  H    0.982294   0.000000
     3  H    0.982294   1.643673   0.000000
     4  H    0.982294   1.643673   1.643673   0.000000
 Stoichiometry    H3O(1+)
 Framework group  C3V[C3(O),3SGV(H)]
 Deg. of freedom     2
 Full point group                 C3V     NOp   6
 Largest Abelian subgroup         CS      NOp   2
 Largest concise Abelian subgroup CS      NOp   2
                         Standard orientation:                         
 ---------------------------------------------------------------------
 Center     Atomic      Atomic             Coordinates (Angstroms)
 Number     Number       Type             X           Y           Z
 ---------------------------------------------------------------------
      1          8           0        0.000000    0.000000    0.069182
      2          1           0        0.000000    0.948975   -0.184486
      3          1           0        0.821837   -0.474488   -0.184486
      4          1           0       -0.821837   -0.474488   -0.184486
 ---------------------------------------------------------------------
 Rotational constants (GHZ):    331.3906729    331.3906729    185.6098451
 Standard basis: 6-31G(d,p) (6D, 7F)
 There are    20 symmetry adapted basis functions of A'  symmetry.
 There are    10 symmetry adapted basis functions of A"  symmetry.
 Integral buffers will be    131072 words long.
 Raffenetti 2 integral format.
 Two-electron integral symmetry is turned on.
    30 basis functions,    49 primitive gaussians,    30 cartesian basis functions
     5 alpha electrons        5 beta electrons
       nuclear repulsion energy        13.8950210887 Hartrees.
 NAtoms=    4 NActive=    4 NUniq=    2 SFac= 4.00D+00 NAtFMM=   60 NAOKFM=F Big=F
 One-electron integrals computed using PRISM.
 NBasis=    30 RedAO= T  NBF=    20    10
 NBsUse=    30 1.00D-06 NBFU=    20    10
 Initial guess read from the read-write file.
 B after Tr=     0.000000    0.000000    0.000000
         Rot=    1.000000    0.000000    0.000000    0.000000 Ang=   0.00 deg.
 Initial guess orbital symmetries:
       Occupied  (A1) (A1) (E) (E) (A1)
       Virtual   (A1) (E) (E) (E) (E) (A1) (A1) (E) (E) (A1) (E)
                 (E) (A1) (A2) (E) (E) (E) (E) (A1) (E) (E) (A1)
                 (E) (E) (A1)
 Requested convergence on RMS density matrix=1.00D-08 within 128 cycles.
 Requested convergence on MAX density matrix=1.00D-06.
 Requested convergence on             energy=1.00D-06.
 No special actions if energy rises.
 Keep R1 ints in memory in canonical form, NReq=1021027.
 SCF Done:  E(RB3LYP) =  -76.7056336814     A.U. after    6 cycles
             Convg  =    0.8520D-08             -V/T =  2.0093
 Calling FoFJK, ICntrl=      2127 FMM=F ISym2X=1 I1Cent= 0 IOpClX= 0 NMat=1 NMatS=1 NMatT=0.
 ***** Axes restored to original set *****
 -------------------------------------------------------------------
 Center     Atomic                   Forces (Hartrees/Bohr)
 Number     Number              X              Y              Z
 -------------------------------------------------------------------
      1        8           0.000000000    0.000000000   -0.000131722
      2        1           0.000000000   -0.000527723    0.000043907
      3        1           0.000457022    0.000263861    0.000043907
      4        1          -0.000457022    0.000263861    0.000043907
 -------------------------------------------------------------------
 Cartesian Forces:  Max     0.000527723 RMS     0.000267490

 GradGradGradGradGradGradGradGradGradGradGradGradGradGradGradGradGradGrad
 Berny optimization.
 Using GEDIIS/GDIIS optimizer.
 Internal  Forces:  Max     0.000498484 RMS     0.000350333
 Search for a local minimum.
 Step number   4 out of a maximum of   20
 All quantities printed in internal units (Hartrees-Bohrs-Radians)
 Mixed Optimization -- En-DIIS/RFO-DIIS
 Swaping is turned off.
 Update second derivatives using D2CorX and points    1    2    3    4
 DE= -1.38D-05 DEPred=-1.05D-05 R= 1.31D+00
 SS=  1.41D+00  RLast= 2.71D-02 DXNew= 6.1006D-01 8.1256D-02
 Trust test= 1.31D+00 RLast= 2.71D-02 DXMaxT set to 3.63D-01
 The second derivative matrix:
                          R1        R2        R3        A1        A2
           R1           0.59492
           R2           0.00304   0.59492
           R3           0.00304   0.00304   0.59492
           A1           0.03235   0.03235   0.03235   0.12932
           A2           0.02563   0.02563   0.02563  -0.03068   0.13165
           A3           0.02563   0.02563   0.02563  -0.03068  -0.02835
           D1          -0.00254  -0.00254  -0.00254  -0.01216  -0.00705
                          A3        D1
           A3           0.13165
           D1          -0.00705   0.02413
 ITU=  1  1  1  0
     Eigenvalues ---    0.01925   0.15905   0.16000   0.59188   0.59188
     Eigenvalues ---    0.60303
 En-DIIS/RFO-DIIS IScMMF=        0 using points:     4    3
 RFO step:  Lambda=-1.53031870D-06.
 DidBck=F Rises=F RFO-DIIS coefs:    1.36976   -0.36976
 Iteration  1 RMS(Cart)=  0.00302968 RMS(Int)=  0.00005269
 Iteration  2 RMS(Cart)=  0.00001297 RMS(Int)=  0.00005092
 Iteration  3 RMS(Cart)=  0.00000000 RMS(Int)=  0.00005092
 ClnCor:  largest displacement from symmetrization is 5.98D-05 for atom     4.
 Variable       Old X    -DE/DX   Delta X   Delta X   Delta X     New X
                                  (DIIS)     (GDIIS)  (Total)
    R1        1.85627  -0.00050   0.00067  -0.00106  -0.00037   1.85590
    R2        1.85627  -0.00050   0.00067  -0.00106  -0.00037   1.85590
    R3        1.85627  -0.00050   0.00067  -0.00106  -0.00037   1.85590
    A1        1.98228   0.00000  -0.00256  -0.00089  -0.00362   1.97865
    A2        1.98228  -0.00014  -0.00256  -0.00106  -0.00362   1.97865
    A3        1.98228  -0.00014  -0.00256  -0.00106  -0.00362   1.97865
    D1        2.30040  -0.00027  -0.00891  -0.00337  -0.01225   2.28815
         Item               Value     Threshold  Converged?
 Maximum Force            0.000498     0.000450     NO 
 RMS     Force            0.000350     0.000300     NO 
 Maximum Displacement     0.005854     0.001800     NO 
 RMS     Displacement     0.003029     0.001200     NO 
 Predicted change in Energy=-2.464963D-06
 GradGradGradGradGradGradGradGradGradGradGradGradGradGradGradGradGradGrad

                          Input orientation:                          
 ---------------------------------------------------------------------
 Center     Atomic      Atomic             Coordinates (Angstroms)
 Number     Number       Type             X           Y           Z
 ---------------------------------------------------------------------
      1          8           0        0.000000    0.000000   -0.085874
      2          1           0        0.000000    0.947660    0.171923
      3          1           0       -0.820697   -0.473830    0.171923
      4          1           0        0.820697   -0.473830    0.171923
 ---------------------------------------------------------------------
                    Distance matrix (angstroms):
                    1          2          3          4
     1  O    0.000000
     2  H    0.982099   0.000000
     3  H    0.982099   1.641394   0.000000
     4  H    0.982099   1.641394   1.641394   0.000000
 Stoichiometry    H3O(1+)
 Framework group  C3V[C3(O),3SGV(H)]
 Deg. of freedom     2
 Full point group                 C3V     NOp   6
 Largest Abelian subgroup         CS      NOp   2
 Largest concise Abelian subgroup CS      NOp   2
                         Standard orientation:                         
 ---------------------------------------------------------------------
 Center     Atomic      Atomic             Coordinates (Angstroms)
 Number     Number       Type             X           Y           Z
 ---------------------------------------------------------------------
      1          8           0        0.000000    0.000000    0.070308
      2          1           0        0.000000    0.947660   -0.187489
      3          1           0        0.820697   -0.473830   -0.187489
      4          1           0       -0.820697   -0.473830   -0.187489
 ---------------------------------------------------------------------
 Rotational constants (GHZ):    331.0439229    331.0439229    186.1256075
 Standard basis: 6-31G(d,p) (6D, 7F)
 There are    20 symmetry adapted basis functions of A'  symmetry.
 There are    10 symmetry adapted basis functions of A"  symmetry.
 Integral buffers will be    131072 words long.
 Raffenetti 2 integral format.
 Two-electron integral symmetry is turned on.
    30 basis functions,    49 primitive gaussians,    30 cartesian basis functions
     5 alpha electrons        5 beta electrons
       nuclear repulsion energy        13.8989334534 Hartrees.
 NAtoms=    4 NActive=    4 NUniq=    2 SFac= 4.00D+00 NAtFMM=   60 NAOKFM=F Big=F
 One-electron integrals computed using PRISM.
 NBasis=    30 RedAO= T  NBF=    20    10
 NBsUse=    30 1.00D-06 NBFU=    20    10
 Initial guess read from the read-write file.
 B after Tr=     0.000000    0.000000    0.000000
         Rot=    1.000000    0.000000    0.000000    0.000000 Ang=   0.00 deg.
 Initial guess orbital symmetries:
       Occupied  (A1) (A1) (E) (E) (A1)
       Virtual   (A1) (E) (E) (E) (E) (A1) (A1) (E) (E) (A1) (E)
                 (E) (A1) (A2) (E) (E) (E) (E) (A1) (E) (E) (A1)
                 (E) (E) (A1)
 Requested convergence on RMS density matrix=1.00D-08 within 128 cycles.
 Requested convergence on MAX density matrix=1.00D-06.
 Requested convergence on             energy=1.00D-06.
 No special actions if energy rises.
 Keep R1 ints in memory in canonical form, NReq=1021027.
 SCF Done:  E(RB3LYP) =  -76.7056363308     A.U. after    6 cycles
             Convg  =    0.1758D-08             -V/T =  2.0092
 Calling FoFJK, ICntrl=      2127 FMM=F ISym2X=1 I1Cent= 0 IOpClX= 0 NMat=1 NMatS=1 NMatT=0.
 ***** Axes restored to original set *****
 -------------------------------------------------------------------
 Center     Atomic                   Forces (Hartrees/Bohr)
 Number     Number              X              Y              Z
 -------------------------------------------------------------------
      1        8           0.000000000    0.000000000    0.000107222
      2        1           0.000000000   -0.000155025   -0.000035741
      3        1           0.000134256    0.000077513   -0.000035741
      4        1          -0.000134256    0.000077513   -0.000035741
 -------------------------------------------------------------------
 Cartesian Forces:  Max     0.000155025 RMS     0.000085356

 GradGradGradGradGradGradGradGradGradGradGradGradGradGradGradGradGradGrad
 Berny optimization.
 Using GEDIIS/GDIIS optimizer.
 Internal  Forces:  Max     0.000158971 RMS     0.000104166
 Search for a local minimum.
 Step number   5 out of a maximum of   20
 All quantities printed in internal units (Hartrees-Bohrs-Radians)
 Mixed Optimization -- En-DIIS/RFO-DIIS
 Swaping is turned off.
 Update second derivatives using D2CorX and points    1    2    3    4    5
 DE= -2.65D-06 DEPred=-2.46D-06 R= 1.07D+00
 SS=  1.41D+00  RLast= 1.38D-02 DXNew= 6.1006D-01 4.1338D-02
 Trust test= 1.07D+00 RLast= 1.38D-02 DXMaxT set to 3.63D-01
 The second derivative matrix:
                          R1        R2        R3        A1        A2
           R1           0.56175
           R2          -0.03013   0.56175
           R3          -0.03013  -0.03013   0.56175
           A1           0.00474   0.00474   0.00474   0.12362
           A2           0.00732   0.00732   0.00732  -0.03673   0.12691
           A3           0.00732   0.00732   0.00732  -0.03673  -0.03309
           D1           0.00687   0.00687   0.00687  -0.01497  -0.00669
                          A3        D1
           A3           0.12691
           D1          -0.00669   0.02943
 ITU=  1  1  1  1  0
     Eigenvalues ---    0.02025   0.15952   0.16000   0.50238   0.59188
     Eigenvalues ---    0.59188
 En-DIIS/RFO-DIIS IScMMF=        0 using points:     5    4    3
 RFO step:  Lambda=-1.07160579D-07.
 DidBck=F Rises=F RFO-DIIS coefs:    1.24217   -0.37689    0.13472
 Iteration  1 RMS(Cart)=  0.00019893 RMS(Int)=  0.00001679
 Iteration  2 RMS(Cart)=  0.00000002 RMS(Int)=  0.00001679
 ClnCor:  largest displacement from symmetrization is 1.03D-06 for atom     4.
 Variable       Old X    -DE/DX   Delta X   Delta X   Delta X     New X
                                  (DIIS)     (GDIIS)  (Total)
    R1        1.85590  -0.00016  -0.00033   0.00000  -0.00033   1.85556
    R2        1.85590  -0.00016  -0.00033   0.00000  -0.00033   1.85556
    R3        1.85590  -0.00016  -0.00033   0.00000  -0.00033   1.85556
    A1        1.97865   0.00000   0.00005  -0.00001   0.00008   1.97873
    A2        1.97865   0.00000   0.00005   0.00000   0.00008   1.97873
    A3        1.97865   0.00000   0.00005   0.00000   0.00008   1.97873
    D1        2.28815  -0.00001   0.00028   0.00000   0.00026   2.28841
         Item               Value     Threshold  Converged?
 Maximum Force            0.000159     0.000450     YES
 RMS     Force            0.000104     0.000300     YES
 Maximum Displacement     0.000276     0.001800     YES
 RMS     Displacement     0.000199     0.001200     YES
 Predicted change in Energy=-7.455830D-08
 Optimization completed.
    -- Stationary point found.
                           ----------------------------
                           !   Optimized Parameters   !
                           ! (Angstroms and Degrees)  !
 --------------------------                            --------------------------
 ! Name  Definition              Value          Derivative Info.                !
 --------------------------------------------------------------------------------
 ! R1    R(1,2)                  0.9821         -DE/DX =   -0.0002              !
 ! R2    R(1,3)                  0.9821         -DE/DX =   -0.0002              !
 ! R3    R(1,4)                  0.9821         -DE/DX =   -0.0002              !
 ! A1    A(2,1,3)              113.3685         -DE/DX =    0.0                 !
 ! A2    A(2,1,4)              113.3685         -DE/DX =    0.0                 !
 ! A3    A(3,1,4)              113.3685         -DE/DX =    0.0                 !
 ! D1    D(2,1,4,3)            131.1016         -DE/DX =    0.0                 !
 --------------------------------------------------------------------------------
 GradGradGradGradGradGradGradGradGradGradGradGradGradGradGradGradGradGrad

                          Input orientation:                          
 ---------------------------------------------------------------------
 Center     Atomic      Atomic             Coordinates (Angstroms)
 Number     Number       Type             X           Y           Z
 ---------------------------------------------------------------------
      1          8           0        0.000000    0.000000   -0.085874
      2          1           0        0.000000    0.947660    0.171923
      3          1           0       -0.820697   -0.473830    0.171923
      4          1           0        0.820697   -0.473830    0.171923
 ---------------------------------------------------------------------
                    Distance matrix (angstroms):
                    1          2          3          4
     1  O    0.000000
     2  H    0.982099   0.000000
     3  H    0.982099   1.641394   0.000000
     4  H    0.982099   1.641394   1.641394   0.000000
 Stoichiometry    H3O(1+)
 Framework group  C3V[C3(O),3SGV(H)]
 Deg. of freedom     2
 Full point group                 C3V     NOp   6
 Largest Abelian subgroup         CS      NOp   2
 Largest concise Abelian subgroup CS      NOp   2
                         Standard orientation:                         
 ---------------------------------------------------------------------
 Center     Atomic      Atomic             Coordinates (Angstroms)
 Number     Number       Type             X           Y           Z
 ---------------------------------------------------------------------
      1          8           0        0.000000    0.000000    0.070308
      2          1           0        0.000000    0.947660   -0.187489
      3          1           0        0.820697   -0.473830   -0.187489
      4          1           0       -0.820697   -0.473830   -0.187489
 ---------------------------------------------------------------------
 Rotational constants (GHZ):    331.0439229    331.0439229    186.1256075

 **********************************************************************

            Population analysis using the SCF density.

 **********************************************************************

 Orbital symmetries:
       Occupied  (A1) (A1) (E) (E) (A1)
       Virtual   (A1) (E) (E) (E) (E) (A1) (A1) (E) (E) (A1) (E)
                 (E) (A1) (A2) (E) (E) (E) (E) (A1) (E) (E) (A1)
                 (E) (E) (A1)
 The electronic state is 1-A1.
 Alpha  occ. eigenvalues --  -19.59079  -1.45006  -0.93865  -0.93865  -0.73808
 Alpha virt. eigenvalues --   -0.26465  -0.16221  -0.16221   0.40714   0.40714
 Alpha virt. eigenvalues --    0.44719   0.50514   0.62852   0.62852   0.87448
 Alpha virt. eigenvalues --    1.06791   1.06791   1.64300   1.70086   1.89589
 Alpha virt. eigenvalues --    1.89589   2.13830   2.13830   2.29209   2.67566
 Alpha virt. eigenvalues --    2.67566   2.88677   3.07686   3.07686   3.59709
          Condensed to atoms (all electrons):
              1          2          3          4
     1  O    7.478507   0.301182   0.301182   0.301182
     2  H    0.301182   0.260571  -0.011218  -0.011218
     3  H    0.301182  -0.011218   0.260571  -0.011218
     4  H    0.301182  -0.011218  -0.011218   0.260571
 Mulliken atomic charges:
              1
     1  O   -0.382051
     2  H    0.460684
     3  H    0.460684
     4  H    0.460684
 Sum of Mulliken atomic charges =   1.00000
 Mulliken charges with hydrogens summed into heavy atoms:
              1
     1  O    1.000000
 Sum of Mulliken charges with hydrogens summed into heavy atoms =   1.00000
 Electronic spatial extent (au):  <R**2>=             18.2973
 Charge=              1.0000 electrons
 Dipole moment (field-independent basis, Debye):
    X=              0.0000    Y=              0.0000    Z=             -1.4951  Tot=              1.4951
 Quadrupole moment (field-independent basis, Debye-Ang):
   XX=             -2.3958   YY=             -2.3958   ZZ=             -6.1818
   XY=              0.0000   XZ=              0.0000   YZ=              0.0000
 Traceless Quadrupole moment (field-independent basis, Debye-Ang):
   XX=              1.2620   YY=              1.2620   ZZ=             -2.5240
   XY=              0.0000   XZ=              0.0000   YZ=              0.0000
 Octapole moment (field-independent basis, Debye-Ang**2):
  XXX=              0.0000  YYY=              1.7603  ZZZ=             -0.7194  XYY=              0.0000
  XXY=             -1.7603  XXZ=             -0.8910  XZZ=              0.0000  YZZ=              0.0000
  YYZ=             -0.8910  XYZ=              0.0000
 Hexadecapole moment (field-independent basis, Debye-Ang**3):
 XXXX=             -3.0358 YYYY=             -3.0358 ZZZZ=             -4.5855 XXXY=              0.0000
 XXXZ=              0.0000 YYYX=              0.0000 YYYZ=             -0.3850 ZZZX=              0.0000
 ZZZY=              0.0000 XXYY=             -1.0119 XXZZ=             -1.5903 YYZZ=             -1.5903
 XXYZ=              0.3850 YYXZ=              0.0000 ZZXY=              0.0000
 N-N= 1.389893345342D+01 E-N=-2.044400390903D+02  KE= 7.600261763006D+01
 Symmetry A'   KE= 7.211977552107D+01
 Symmetry A"   KE= 3.882842108990D+00
 1\1\GINC-STUDENT-LENOVO-S510\FOpt\RB3LYP\6-31G(d,p)\H3O1(1+)\STUDENT\0
 1-Mar-2021\0\\# b3lyp/6-31g** geom=connectivity opt freq\\Title Card R
 equired\\1,1\O,0.,0.,-0.0858737909\H,0.0000000015,0.9476595311,0.17192
 29805\H,-0.8206972288,-0.4738297643,0.1719229805\H,0.8206972273,-0.473
 8297668,0.1719229805\\Version=EM64L-G09RevC.01\State=1-A1\HF=-76.70563
 63\RMSD=1.758e-09\RMSF=8.536e-05\Dipole=0.,0.,0.5882151\Quadrupole=0.9
 382656,0.9382656,-1.8765313,0.,0.,0.\PG=C03V [C3(O1),3SGV(H1)]\\@


 IF AT FIRST YOU DON'T SUCCEED, TRY, TRY AGAIN.
 THEN GIVE UP;
 THERE'S NO USE BEING A DAMN FOOL ABOUT IT.

                                 -- W. C. FIELDS
 Job cpu time:  0 days  0 hours  0 minutes  4.1 seconds.
 File lengths (MBytes):  RWF=      5 Int=      0 D2E=      0 Chk=      1 Scr=      1
 Normal termination of Gaussian 09 at Mon Mar  1 17:28:16 2021.
 Link1:  Proceeding to internal job step number  2.
 ----------------------------------------------------------------------
 #N Geom=AllCheck Guess=TCheck SCRF=Check GenChk RB3LYP/6-31G(d,p) Freq
 ----------------------------------------------------------------------
 1/10=4,29=7,30=1,38=1,40=1/1,3;
 2/12=2,40=1/2;
 3/5=1,6=6,7=101,11=2,14=-4,16=1,25=1,30=1,70=2,71=2,74=-5,116=1/1,2,3;
 4/5=101/1;
 5/5=2,98=1/2;
 8/6=4,10=90,11=11/1;
 11/6=1,8=1,9=11,15=111,16=1/1,2,10;
 10/6=1/2;
 6/7=2,8=2,9=2,10=2,18=1,28=1/1;
 7/8=1,10=1,25=1/1,2,3,16;
 1/10=4,30=1/3;
 99//99;
 Structure from the checkpoint file:  h3o_c3v.chk
 -------------------
 Title Card Required
 -------------------
 Charge =  1 Multiplicity = 1
 Redundant internal coordinates found in file.
 O,0,0.,0.,-0.0858737909
 H,0,0.0000000015,0.9476595311,0.1719229805
 H,0,-0.8206972288,-0.4738297643,0.1719229805
 H,0,0.8206972273,-0.4738297668,0.1719229805
 Recover connectivity data from disk.

 GradGradGradGradGradGradGradGradGradGradGradGradGradGradGradGradGradGrad
 Berny optimization.
 Initialization pass.
                           ----------------------------
                           !    Initial Parameters    !
                           ! (Angstroms and Degrees)  !
 --------------------------                            --------------------------
 ! Name  Definition              Value          Derivative Info.                !
 --------------------------------------------------------------------------------
 ! R1    R(1,2)                  0.9821         calculate D2E/DX2 analytically  !
 ! R2    R(1,3)                  0.9821         calculate D2E/DX2 analytically  !
 ! R3    R(1,4)                  0.9821         calculate D2E/DX2 analytically  !
 ! A1    A(2,1,3)              113.3685         calculate D2E/DX2 analytically  !
 ! A2    A(2,1,4)              113.3685         calculate D2E/DX2 analytically  !
 ! A3    A(3,1,4)              113.3685         calculate D2E/DX2 analytically  !
 ! D1    D(2,1,4,3)            131.1016         calculate D2E/DX2 analytically  !
 --------------------------------------------------------------------------------
 Trust Radius=3.00D-01 FncErr=1.00D-07 GrdErr=1.00D-07
 Number of steps in this run=      2 maximum allowed number of steps=      2.
 GradGradGradGradGradGradGradGradGradGradGradGradGradGradGradGradGradGrad

                          Input orientation:                          
 ---------------------------------------------------------------------
 Center     Atomic      Atomic             Coordinates (Angstroms)
 Number     Number       Type             X           Y           Z
 ---------------------------------------------------------------------
      1          8           0        0.000000    0.000000   -0.085874
      2          1           0        0.000000    0.947660    0.171923
      3          1           0       -0.820697   -0.473830    0.171923
      4          1           0        0.820697   -0.473830    0.171923
 ---------------------------------------------------------------------
                    Distance matrix (angstroms):
                    1          2          3          4
     1  O    0.000000
     2  H    0.982099   0.000000
     3  H    0.982099   1.641394   0.000000
     4  H    0.982099   1.641394   1.641394   0.000000
 Stoichiometry    H3O(1+)
 Framework group  C3V[C3(O),3SGV(H)]
 Deg. of freedom     2
 Full point group                 C3V     NOp   6
 Largest Abelian subgroup         CS      NOp   2
 Largest concise Abelian subgroup CS      NOp   2
                         Standard orientation:                         
 ---------------------------------------------------------------------
 Center     Atomic      Atomic             Coordinates (Angstroms)
 Number     Number       Type             X           Y           Z
 ---------------------------------------------------------------------
      1          8           0        0.000000    0.000000    0.070308
      2          1           0        0.000000    0.947660   -0.187489
      3          1           0        0.820697   -0.473830   -0.187489
      4          1           0       -0.820697   -0.473830   -0.187489
 ---------------------------------------------------------------------
 Rotational constants (GHZ):    331.0439229    331.0439229    186.1256075
 Standard basis: 6-31G(d,p) (6D, 7F)
 There are    20 symmetry adapted basis functions of A'  symmetry.
 There are    10 symmetry adapted basis functions of A"  symmetry.
 Integral buffers will be    131072 words long.
 Raffenetti 2 integral format.
 Two-electron integral symmetry is turned on.
    30 basis functions,    49 primitive gaussians,    30 cartesian basis functions
     5 alpha electrons        5 beta electrons
       nuclear repulsion energy        13.8989334534 Hartrees.
 NAtoms=    4 NActive=    4 NUniq=    2 SFac= 4.00D+00 NAtFMM=   60 NAOKFM=F Big=F
 One-electron integrals computed using PRISM.
 NBasis=    30 RedAO= T  NBF=    20    10
 NBsUse=    30 1.00D-06 NBFU=    20    10
 Initial guess read from the checkpoint file:  h3o_c3v.chk
 B after Tr=     0.000000    0.000000    0.000000
         Rot=    1.000000    0.000000    0.000000    0.000000 Ang=   0.00 deg.
 Initial guess orbital symmetries:
       Occupied  (A1) (A1) (E) (E) (A1)
       Virtual   (A1) (E) (E) (E) (E) (A1) (A1) (E) (E) (A1) (E)
                 (E) (A1) (A2) (E) (E) (E) (E) (A1) (E) (E) (A1)
                 (E) (E) (A1)
 Requested convergence on RMS density matrix=1.00D-08 within 128 cycles.
 Requested convergence on MAX density matrix=1.00D-06.
 Requested convergence on             energy=1.00D-06.
 No special actions if energy rises.
 Keep R1 ints in memory in canonical form, NReq=1021027.
 SCF Done:  E(RB3LYP) =  -76.7056363308     A.U. after    1 cycles
             Convg  =    0.1902D-09             -V/T =  2.0092
 Range of M.O.s used for correlation:     1    30
 NBasis=    30 NAE=     5 NBE=     5 NFC=     0 NFV=     0
 NROrb=     30 NOA=     5 NOB=     5 NVA=    25 NVB=    25
 Symmetrizing basis deriv contribution to polar:
 IMax=3 JMax=2 DiffMx= 0.00D+00
 G2DrvN: will do     5 centers at a time, making    1 passes doing MaxLOS=2.
 Calling FoFCou, ICntrl=  3107 FMM=F I1Cent=   0 AccDes= 0.00D+00.
 FoFDir/FoFCou used for L=0 through L=2.
 End of G2Drv Frequency-dependent properties file   721 does not exist.
 End of G2Drv Frequency-dependent properties file   722 does not exist.
          IDoAtm=1111
          Differentiating once with respect to electric field.
                with respect to dipole field.
          Differentiating once with respect to nuclear coordinates.
          Keep R1 ints in memory in canonical form, NReq=929794.
          There are     9 degrees of freedom in the 1st order CPHF.  IDoFFX=4.
      9 vectors produced by pass  0 Test12= 1.39D-15 1.11D-08 XBig12= 1.94D+00 8.94D-01.
 AX will form     9 AO Fock derivatives at one time.
      9 vectors produced by pass  1 Test12= 1.39D-15 1.11D-08 XBig12= 7.85D-02 1.11D-01.
      9 vectors produced by pass  2 Test12= 1.39D-15 1.11D-08 XBig12= 3.15D-04 8.57D-03.
      9 vectors produced by pass  3 Test12= 1.39D-15 1.11D-08 XBig12= 6.17D-07 4.75D-04.
      9 vectors produced by pass  4 Test12= 1.39D-15 1.11D-08 XBig12= 2.49D-10 6.06D-06.
      3 vectors produced by pass  5 Test12= 1.39D-15 1.11D-08 XBig12= 6.62D-14 1.27D-07.
 Inverted reduced A of dimension    48 with in-core refinement.
 Isotropic polarizability for W=    0.000000        4.78 Bohr**3.
 End of Minotr Frequency-dependent properties file   721 does not exist.
 End of Minotr Frequency-dependent properties file   722 does not exist.

 **********************************************************************

            Population analysis using the SCF density.

 **********************************************************************

 Orbital symmetries:
       Occupied  (A1) (A1) (E) (E) (A1)
       Virtual   (A1) (E) (E) (E) (E) (A1) (A1) (E) (E) (A1) (E)
                 (E) (A1) (A2) (E) (E) (E) (E) (A1) (E) (E) (A1)
                 (E) (E) (A1)
 The electronic state is 1-A1.
 Alpha  occ. eigenvalues --  -19.59079  -1.45006  -0.93865  -0.93865  -0.73808
 Alpha virt. eigenvalues --   -0.26465  -0.16221  -0.16221   0.40714   0.40714
 Alpha virt. eigenvalues --    0.44719   0.50514   0.62852   0.62852   0.87448
 Alpha virt. eigenvalues --    1.06791   1.06791   1.64300   1.70086   1.89589
 Alpha virt. eigenvalues --    1.89589   2.13830   2.13830   2.29209   2.67566
 Alpha virt. eigenvalues --    2.67566   2.88677   3.07686   3.07686   3.59709
          Condensed to atoms (all electrons):
              1          2          3          4
     1  O    7.478507   0.301182   0.301182   0.301182
     2  H    0.301182   0.260571  -0.011218  -0.011218
     3  H    0.301182  -0.011218   0.260571  -0.011218
     4  H    0.301182  -0.011218  -0.011218   0.260571
 Mulliken atomic charges:
              1
     1  O   -0.382051
     2  H    0.460684
     3  H    0.460684
     4  H    0.460684
 Sum of Mulliken atomic charges =   1.00000
 Mulliken charges with hydrogens summed into heavy atoms:
              1
     1  O    1.000000
 Sum of Mulliken charges with hydrogens summed into heavy atoms =   1.00000
 APT atomic charges:
              1
     1  O   -0.447276
     2  H    0.482424
     3  H    0.482425
     4  H    0.482425
 Sum of APT charges=   1.00000
 APT Atomic charges with hydrogens summed into heavy atoms:
              1
     1  O    0.999999
     2  H    0.000000
     3  H    0.000000
     4  H    0.000000
 Sum of APT charges=   1.00000
 Electronic spatial extent (au):  <R**2>=             18.2973
 Charge=              1.0000 electrons
 Dipole moment (field-independent basis, Debye):
    X=              0.0000    Y=              0.0000    Z=             -1.4951  Tot=              1.4951
 Quadrupole moment (field-independent basis, Debye-Ang):
   XX=             -2.3958   YY=             -2.3958   ZZ=             -6.1818
   XY=              0.0000   XZ=              0.0000   YZ=              0.0000
 Traceless Quadrupole moment (field-independent basis, Debye-Ang):
   XX=              1.2620   YY=              1.2620   ZZ=             -2.5240
   XY=              0.0000   XZ=              0.0000   YZ=              0.0000
 Octapole moment (field-independent basis, Debye-Ang**2):
  XXX=              0.0000  YYY=              1.7603  ZZZ=             -0.7194  XYY=              0.0000
  XXY=             -1.7603  XXZ=             -0.8910  XZZ=              0.0000  YZZ=              0.0000
  YYZ=             -0.8910  XYZ=              0.0000
 Hexadecapole moment (field-independent basis, Debye-Ang**3):
 XXXX=             -3.0358 YYYY=             -3.0358 ZZZZ=             -4.5855 XXXY=              0.0000
 XXXZ=              0.0000 YYYX=              0.0000 YYYZ=             -0.3850 ZZZX=              0.0000
 ZZZY=              0.0000 XXYY=             -1.0119 XXZZ=             -1.5903 YYZZ=             -1.5903
 XXYZ=              0.3850 YYXZ=              0.0000 ZZXY=              0.0000
 N-N= 1.389893345342D+01 E-N=-2.044400391705D+02  KE= 7.600261766813D+01
 Symmetry A'   KE= 7.211977554409D+01
 Symmetry A"   KE= 3.882842124044D+00
  Exact polarizability:   5.613   0.000   5.613   0.000   0.000   3.115
 Approx polarizability:   6.806   0.000   6.806   0.000   0.000   3.618
 Calling FoFJK, ICntrl=    100127 FMM=F ISym2X=1 I1Cent= 0 IOpClX= 0 NMat=1 NMatS=1 NMatT=0.
 Full mass-weighted force constant matrix:
 Low frequencies ---   -0.0992   -0.0172   -0.0018   32.0838   32.0975   49.0085
 Low frequencies ---  784.2404 1668.9851 1668.9852
 Harmonic frequencies (cm**-1), IR intensities (KM/Mole), Raman scattering
 activities (A**4/AMU), depolarization ratios for plane and unpolarized
 incident light, reduced masses (AMU), force constants (mDyne/A),
 and normal coordinates:
                     1                      2                      3
                    A1                      E                      E
 Frequencies --   784.2404              1668.9851              1668.9852
 Red. masses --     1.1722                 1.0682                 1.0682
 Frc consts  --     0.4248                 1.7531                 1.7531
 IR Inten    --   549.2742               121.9015               121.9002
  Atom  AN      X      Y      Z        X      Y      Z        X      Y      Z
     1   8     0.00   0.00   0.10     0.00   0.06   0.00    -0.06   0.00   0.00
     2   1     0.00  -0.15  -0.55     0.00   0.11   0.18     0.79   0.00   0.00
     3   1    -0.13   0.08  -0.55    -0.39  -0.56  -0.09     0.11   0.39  -0.16
     4   1     0.13   0.08  -0.55     0.39  -0.56  -0.09     0.11  -0.39   0.16
                     4                      5                      6
                    A1                      E                      E
 Frequencies --  3581.7801              3700.7624              3700.7627
 Red. masses --     1.0167                 1.0907                 1.0907
 Frc consts  --     7.6848                 8.8007                 8.8007
 IR Inten    --    40.1795               504.3984               504.3947
  Atom  AN      X      Y      Z        X      Y      Z        X      Y      Z
     1   8     0.00   0.00   0.02     0.00   0.07   0.00     0.07   0.00   0.00
     2   1     0.00   0.56  -0.13     0.00  -0.79   0.21     0.00   0.00   0.00
     3   1     0.49  -0.28  -0.13     0.34  -0.20  -0.11    -0.59   0.34   0.19
     4   1    -0.49  -0.28  -0.13    -0.34  -0.20  -0.11    -0.59  -0.34  -0.19

 -------------------
 - Thermochemistry -
 -------------------
 Temperature   298.150 Kelvin.  Pressure   1.00000 Atm.
 Atom     1 has atomic number  8 and mass  15.99491
 Atom     2 has atomic number  1 and mass   1.00783
 Atom     3 has atomic number  1 and mass   1.00783
 Atom     4 has atomic number  1 and mass   1.00783
 Molecular mass:    19.01839 amu.
 Principal axes and moments of inertia in atomic units:
                           1         2         3
     Eigenvalues --     5.45167   5.45167   9.69636
           X           -0.22795   0.97367   0.00000
           Y            0.97367   0.22795   0.00000
           Z            0.00000   0.00000   1.00000
 This molecule is an oblate symmetric top.
 Rotational symmetry number  3.
 Rotational temperatures (Kelvin)     15.88758    15.88758     8.93261
 Rotational constants (GHZ):         331.04392   331.04392   186.12561
 Zero-point vibrational energy      90351.0 (Joules/Mol)
                                   21.59442 (Kcal/Mol)
 Vibrational temperatures:   1128.35  2401.29  2401.29  5153.38  5324.57
          (Kelvin)           5324.57
 
 Zero-point correction=                           0.034413 (Hartree/Particle)
 Thermal correction to Energy=                    0.037333
 Thermal correction to Enthalpy=                  0.038278
 Thermal correction to Gibbs Free Energy=         0.016303
 Sum of electronic and zero-point Energies=            -76.671223
 Sum of electronic and thermal Energies=               -76.668303
 Sum of electronic and thermal Enthalpies=             -76.667359
 Sum of electronic and thermal Free Energies=          -76.689333
 
                     E (Thermal)             CV                S
                      KCal/Mol        Cal/Mol-Kelvin    Cal/Mol-Kelvin
 Total                   23.427              6.721             46.250
 Electronic               0.000              0.000              0.000
 Translational            0.889              2.981             34.771
 Rotational               0.889              2.981             11.247
 Vibrational             21.650              0.759              0.232
                       Q            Log10(Q)             Ln(Q)
 Total Bot       0.317126D-07         -7.498768        -17.266552
 Total V=0       0.213812D+09          8.330032         19.180608
 Vib (Bot)       0.151865D-15        -15.818543        -36.423541
 Vib (V=0)       0.102390D+01          0.010257          0.023618
 Electronic      0.100000D+01          0.000000          0.000000
 Translational   0.325999D+07          6.513216         14.997234
 Rotational      0.640559D+02          1.806559          4.159756
 ***** Axes restored to original set *****
 -------------------------------------------------------------------
 Center     Atomic                   Forces (Hartrees/Bohr)
 Number     Number              X              Y              Z
 -------------------------------------------------------------------
      1        8           0.000000000    0.000000000    0.000107220
      2        1           0.000000000   -0.000155025   -0.000035740
      3        1           0.000134256    0.000077513   -0.000035740
      4        1          -0.000134256    0.000077513   -0.000035740
 -------------------------------------------------------------------
 Cartesian Forces:  Max     0.000155025 RMS     0.000085355

 GradGradGradGradGradGradGradGradGradGradGradGradGradGradGradGradGradGrad
 Berny optimization.
 Internal  Forces:  Max     0.000158970 RMS     0.000104165
 Search for a local minimum.
 Step number   1 out of a maximum of    2
 All quantities printed in internal units (Hartrees-Bohrs-Radians)
 Second derivative matrix not updated -- analytic derivatives used.
 The second derivative matrix:
                          R1        R2        R3        A1        A2
           R1           0.48170
           R2           0.00112   0.48170
           R3           0.00112   0.00112   0.48170
           A1           0.00246   0.00246  -0.00439   0.06246
           A2           0.00761  -0.00041   0.00838  -0.04346   0.09897
           A3          -0.00041   0.00761   0.00838  -0.04346  -0.02956
           D1           0.01040   0.01040   0.00959   0.00769   0.00313
                          A3        D1
           A3           0.09897
           D1           0.00313   0.01706
 ITU=  0
     Eigenvalues ---    0.02053   0.12715   0.12835   0.48075   0.48077
     Eigenvalues ---    0.48501
 Angle between quadratic step and forces=   4.99 degrees.
 Linear search not attempted -- first point.
 Iteration  1 RMS(Cart)=  0.00020791 RMS(Int)=  0.00000000
 Iteration  2 RMS(Cart)=  0.00000000 RMS(Int)=  0.00000000
 ClnCor:  largest displacement from symmetrization is 7.79D-10 for atom     3.
 Variable       Old X    -DE/DX   Delta X   Delta X   Delta X     New X
                                 (Linear)    (Quad)   (Total)
    R1        1.85590  -0.00016   0.00000  -0.00033  -0.00033   1.85557
    R2        1.85590  -0.00016   0.00000  -0.00033  -0.00033   1.85557
    R3        1.85590  -0.00016   0.00000  -0.00033  -0.00033   1.85557
    A1        1.97865   0.00000   0.00000   0.00001   0.00001   1.97866
    A2        1.97865   0.00000   0.00000   0.00001   0.00001   1.97866
    A3        1.97865   0.00000   0.00000   0.00001   0.00001   1.97866
    D1        2.28815  -0.00001   0.00000   0.00002   0.00002   2.28818
         Item               Value     Threshold  Converged?
 Maximum Force            0.000159     0.000450     YES
 RMS     Force            0.000104     0.000300     YES
 Maximum Displacement     0.000314     0.001800     YES
 RMS     Displacement     0.000208     0.001200     YES
 Predicted change in Energy=-7.833811D-08
 Optimization completed.
    -- Stationary point found.
                           ----------------------------
                           !   Optimized Parameters   !
                           ! (Angstroms and Degrees)  !
 --------------------------                            --------------------------
 ! Name  Definition              Value          Derivative Info.                !
 --------------------------------------------------------------------------------
 ! R1    R(1,2)                  0.9821         -DE/DX =   -0.0002              !
 ! R2    R(1,3)                  0.9821         -DE/DX =   -0.0002              !
 ! R3    R(1,4)                  0.9821         -DE/DX =   -0.0002              !
 ! A1    A(2,1,3)              113.3685         -DE/DX =    0.0                 !
 ! A2    A(2,1,4)              113.3685         -DE/DX =    0.0                 !
 ! A3    A(3,1,4)              113.3685         -DE/DX =    0.0                 !
 ! D1    D(2,1,4,3)            131.1016         -DE/DX =    0.0                 !
 --------------------------------------------------------------------------------
 GradGradGradGradGradGradGradGradGradGradGradGradGradGradGradGradGradGrad

 1\1\GINC-STUDENT-LENOVO-S510\Freq\RB3LYP\6-31G(d,p)\H3O1(1+)\STUDENT\0
 1-Mar-2021\0\\#N Geom=AllCheck Guess=TCheck SCRF=Check GenChk RB3LYP/6
 -31G(d,p) Freq\\Title Card Required\\1,1\O,0.,0.,-0.0858737909\H,0.000
 0000015,0.9476595311,0.1719229805\H,-0.8206972288,-0.4738297643,0.1719
 229805\H,0.8206972273,-0.4738297668,0.1719229805\\Version=EM64L-G09Rev
 C.01\State=1-A1\HF=-76.7056363\RMSD=1.902e-10\RMSF=8.536e-05\ZeroPoint
 =0.0344129\Thermal=0.0373334\Dipole=0.,0.,0.5882151\DipoleDeriv=-0.471
 5643,0.,0.,0.,-0.4715722,0.000005,0.,0.0000016,-0.39869,0.3733609,0.,0
 .,0.,0.6076853,0.0089896,0.,-0.0015521,0.466227,0.549103,0.1014656,-0.
 0077869,0.1014656,0.4319427,-0.0044961,0.0013451,0.0007756,0.4662293,0
 .549103,-0.1014656,0.0077869,-0.1014656,0.4319427,-0.0044961,-0.001345
 1,0.0007756,0.4662293\Polar=5.6131846,0.,5.6132176,0.,0.0000278,3.1152
 311\PG=C03V [C3(O1),3SGV(H1)]\NImag=0\\0.77360387,0.,0.77360217,0.,0.0
 0000142,0.12788726,-0.07988694,0.,0.,0.06193360,0.,-0.43584857,-0.1002
 2436,0.,0.45323368,0.,-0.14029760,-0.04262949,0.,0.11246393,0.03968303
 ,-0.34685831,-0.15413578,0.08679637,0.00897669,-0.00008225,-0.00096806
 ,0.35540866,-0.15413605,-0.16887707,0.05011183,-0.03052180,-0.00869257
 ,0.01391678,0.16943790,0.15975862,0.12150084,0.07014844,-0.04262919,-0
 .01253631,-0.00612003,0.00147323,-0.09739662,-0.05623196,0.03968303,-0
 .34685831,0.15413578,-0.08679637,0.00897669,0.00008225,0.00096806,-0.0
 1752720,0.01521978,-0.01156826,0.35540866,0.15413605,-0.16887707,0.050
 11183,0.03052180,-0.00869257,0.01391678,-0.01521978,0.01781131,-0.0077
 9675,-0.16943791,0.15975862,-0.12150084,0.07014844,-0.04262919,0.01253
 631,-0.00612003,0.00147323,0.01156826,-0.00779675,0.00147323,0.0973966
 2,-0.05623196,0.03968303\\0.,0.,-0.00010722,0.,0.00015503,0.00003574,-
 0.00013426,-0.00007751,0.00003574,0.00013426,-0.00007751,0.00003574\\\
 @


 IF THE FACTS DO NOT CONFORM TO THE THEORY, THEY MUST BE DISPOSED OF.
 Job cpu time:  0 days  0 hours  0 minutes  2.2 seconds.
 File lengths (MBytes):  RWF=      5 Int=      0 D2E=      0 Chk=      1 Scr=      1
 Normal termination of Gaussian 09 at Mon Mar  1 17:28:19 2021.
